# vtk DataFile Version 2.0
Written using VisIt writer
ASCII
DATASET RECTILINEAR_GRID
DIMENSIONS 20 20 20
X_COORDINATES 20 float
  0.000000000000e+00   1.000000000000e+00   2.000000000000e+00   3.000000000000e+00   4.000000000000e+00   5.000000000000e+00   6.000000000000e+00   7.000000000000e+00   8.000000000000e+00 
  9.000000000000e+00   1.000000000000e+01   1.100000000000e+01   1.200000000000e+01   1.300000000000e+01   1.400000000000e+01   1.500000000000e+01   1.600000000000e+01   1.700000000000e+01 
  1.800000000000e+01   1.900000000000e+01 
Y_COORDINATES 20 float
  0.000000000000e+00   1.000000000000e+00   2.000000000000e+00   3.000000000000e+00   4.000000000000e+00   5.000000000000e+00   6.000000000000e+00   7.000000000000e+00   8.000000000000e+00 
  9.000000000000e+00   1.000000000000e+01   1.100000000000e+01   1.200000000000e+01   1.300000000000e+01   1.400000000000e+01   1.500000000000e+01   1.600000000000e+01   1.700000000000e+01 
  1.800000000000e+01   1.900000000000e+01 
Z_COORDINATES 20 float
  0.000000000000e+00   1.000000000000e+00   2.000000000000e+00   3.000000000000e+00   4.000000000000e+00   5.000000000000e+00   6.000000000000e+00   7.000000000000e+00   8.000000000000e+00 
  9.000000000000e+00   1.000000000000e+01   1.100000000000e+01   1.200000000000e+01   1.300000000000e+01   1.400000000000e+01   1.500000000000e+01   1.600000000000e+01   1.700000000000e+01 
  1.800000000000e+01   1.900000000000e+01 
CELL_DATA 6859
POINT_DATA 8000
SCALARS cell_type float
LOOKUP_TABLE default
  3.000000000000e+00   3.000000000000e+00   3.000000000000e+00   3.000000000000e+00   3.000000000000e+00   3.000000000000e+00   3.000000000000e+00   3.000000000000e+00   3.000000000000e+00 
  3.000000000000e+00   3.000000000000e+00   3.000000000000e+00   3.000000000000e+00   3.000000000000e+00   3.000000000000e+00   3.000000000000e+00   3.000000000000e+00   3.000000000000e+00 
  3.000000000000e+00   3.000000000000e+00   3.000000000000e+00   3.000000000000e+00   3.000000000000e+00   3.000000000000e+00   3.000000000000e+00   3.000000000000e+00   3.000000000000e+00 
  3.000000000000e+00   3.000000000000e+00   3.000000000000e+00   3.000000000000e+00   3.000000000000e+00   3.000000000000e+00   3.000000000000e+00   3.000000000000e+00   3.000000000000e+00 
  3.000000000000e+00   3.000000000000e+00   3.000000000000e+00   3.000000000000e+00   3.000000000000e+00   3.000000000000e+00   3.000000000000e+00   3.000000000000e+00   3.000000000000e+00 
  3.000000000000e+00   3.000000000000e+00   3.000000000000e+00   3.000000000000e+00   3.000000000000e+00   3.000000000000e+00   3.000000000000e+00   3.000000000000e+00   3.000000000000e+00 
  3.000000000000e+00   3.000000000000e+00   3.000000000000e+00   3.000000000000e+00   3.000000000000e+00   3.000000000000e+00   3.000000000000e+00   3.000000000000e+00   3.000000000000e+00 
  3.000000000000e+00   3.000000000000e+00   3.000000000000e+00   3.000000000000e+00   3.000000000000e+00   3.000000000000e+00   3.000000000000e+00   3.000000000000e+00   3.000000000000e+00 
  3.000000000000e+00   3.000000000000e+00   3.000000000000e+00   3.000000000000e+00   3.000000000000e+00   3.000000000000e+00   3.000000000000e+00   3.000000000000e+00   3.000000000000e+00 
  3.000000000000e+00   3.000000000000e+00   3.000000000000e+00   3.000000000000e+00   3.000000000000e+00   3.000000000000e+00   3.000000000000e+00   3.000000000000e+00   3.000000000000e+00 
  3.000000000000e+00   3.000000000000e+00   3.000000000000e+00   3.000000000000e+00   3.000000000000e+00   3.000000000000e+00   3.000000000000e+00   3.000000000000e+00   3.000000000000e+00 
  3.000000000000e+00   3.000000000000e+00   3.000000000000e+00   3.000000000000e+00   3.000000000000e+00   3.000000000000e+00   3.000000000000e+00   3.000000000000e+00   3.000000000000e+00 
  3.000000000000e+00   3.000000000000e+00   3.000000000000e+00   3.000000000000e+00   3.000000000000e+00   3.000000000000e+00   3.000000000000e+00   3.000000000000e+00   3.000000000000e+00 
  3.000000000000e+00   3.000000000000e+00   3.000000000000e+00   3.000000000000e+00   3.000000000000e+00   3.000000000000e+00   3.000000000000e+00   3.000000000000e+00   3.000000000000e+00 
  3.000000000000e+00   3.000000000000e+00   3.000000000000e+00   3.000000000000e+00   3.000000000000e+00   3.000000000000e+00   3.000000000000e+00   3.000000000000e+00   3.000000000000e+00 
  3.000000000000e+00   3.000000000000e+00   3.000000000000e+00   3.000000000000e+00   3.000000000000e+00   3.000000000000e+00   3.000000000000e+00   3.000000000000e+00   3.000000000000e+00 
  3.000000000000e+00   3.000000000000e+00   3.000000000000e+00   3.000000000000e+00   3.000000000000e+00   3.000000000000e+00   3.000000000000e+00   3.000000000000e+00   3.000000000000e+00 
  3.000000000000e+00   3.000000000000e+00   3.000000000000e+00   3.000000000000e+00   3.000000000000e+00   3.000000000000e+00   3.000000000000e+00   3.000000000000e+00   3.000000000000e+00 
  3.000000000000e+00   3.000000000000e+00   3.000000000000e+00   3.000000000000e+00   3.000000000000e+00   3.000000000000e+00   3.000000000000e+00   3.000000000000e+00   3.000000000000e+00 
  3.000000000000e+00   3.000000000000e+00   3.000000000000e+00   3.000000000000e+00   3.000000000000e+00   3.000000000000e+00   3.000000000000e+00   3.000000000000e+00   3.000000000000e+00 
  3.000000000000e+00   3.000000000000e+00   3.000000000000e+00   3.000000000000e+00   3.000000000000e+00   3.000000000000e+00   3.000000000000e+00   3.000000000000e+00   3.000000000000e+00 
  3.000000000000e+00   3.000000000000e+00   3.000000000000e+00   3.000000000000e+00   3.000000000000e+00   3.000000000000e+00   3.000000000000e+00   3.000000000000e+00   3.000000000000e+00 
  3.000000000000e+00   3.000000000000e+00   3.000000000000e+00   3.000000000000e+00   3.000000000000e+00   3.000000000000e+00   3.000000000000e+00   3.000000000000e+00   3.000000000000e+00 
  3.000000000000e+00   3.000000000000e+00   3.000000000000e+00   3.000000000000e+00   3.000000000000e+00   3.000000000000e+00   3.000000000000e+00   3.000000000000e+00   3.000000000000e+00 
  3.000000000000e+00   3.000000000000e+00   3.000000000000e+00   3.000000000000e+00   3.000000000000e+00   3.000000000000e+00   3.000000000000e+00   3.000000000000e+00   3.000000000000e+00 
  3.000000000000e+00   3.000000000000e+00   3.000000000000e+00   3.000000000000e+00   3.000000000000e+00   3.000000000000e+00   3.000000000000e+00   3.000000000000e+00   3.000000000000e+00 
  3.000000000000e+00   3.000000000000e+00   3.000000000000e+00   3.000000000000e+00   3.000000000000e+00   3.000000000000e+00   3.000000000000e+00   3.000000000000e+00   3.000000000000e+00 
  3.000000000000e+00   3.000000000000e+00   3.000000000000e+00   3.000000000000e+00   3.000000000000e+00   3.000000000000e+00   3.000000000000e+00   3.000000000000e+00   3.000000000000e+00 
  3.000000000000e+00   3.000000000000e+00   3.000000000000e+00   3.000000000000e+00   3.000000000000e+00   3.000000000000e+00   3.000000000000e+00   3.000000000000e+00   3.000000000000e+00 
  3.000000000000e+00   3.000000000000e+00   3.000000000000e+00   3.000000000000e+00   3.000000000000e+00   3.000000000000e+00   3.000000000000e+00   3.000000000000e+00   3.000000000000e+00 
  3.000000000000e+00   3.000000000000e+00   3.000000000000e+00   3.000000000000e+00   3.000000000000e+00   3.000000000000e+00   3.000000000000e+00   3.000000000000e+00   3.000000000000e+00 
  3.000000000000e+00   3.000000000000e+00   3.000000000000e+00   3.000000000000e+00   3.000000000000e+00   3.000000000000e+00   3.000000000000e+00   3.000000000000e+00   3.000000000000e+00 
  3.000000000000e+00   3.000000000000e+00   3.000000000000e+00   3.000000000000e+00   3.000000000000e+00   3.000000000000e+00   3.000000000000e+00   3.000000000000e+00   3.000000000000e+00 
  3.000000000000e+00   3.000000000000e+00   3.000000000000e+00   3.000000000000e+00   3.000000000000e+00   3.000000000000e+00   3.000000000000e+00   3.000000000000e+00   3.000000000000e+00 
  3.000000000000e+00   3.000000000000e+00   3.000000000000e+00   3.000000000000e+00   3.000000000000e+00   3.000000000000e+00   3.000000000000e+00   3.000000000000e+00   3.000000000000e+00 
  3.000000000000e+00   3.000000000000e+00   3.000000000000e+00   3.000000000000e+00   3.000000000000e+00   3.000000000000e+00   3.000000000000e+00   3.000000000000e+00   3.000000000000e+00 
  3.000000000000e+00   3.000000000000e+00   3.000000000000e+00   3.000000000000e+00   3.000000000000e+00   3.000000000000e+00   3.000000000000e+00   3.000000000000e+00   3.000000000000e+00 
  3.000000000000e+00   3.000000000000e+00   3.000000000000e+00   3.000000000000e+00   3.000000000000e+00   3.000000000000e+00   3.000000000000e+00   3.000000000000e+00   3.000000000000e+00 
  3.000000000000e+00   3.000000000000e+00   3.000000000000e+00   3.000000000000e+00   3.000000000000e+00   3.000000000000e+00   3.000000000000e+00   3.000000000000e+00   3.000000000000e+00 
  3.000000000000e+00   3.000000000000e+00   3.000000000000e+00   3.000000000000e+00   3.000000000000e+00   3.000000000000e+00   3.000000000000e+00   3.000000000000e+00   3.000000000000e+00 
  3.000000000000e+00   3.000000000000e+00   3.000000000000e+00   3.000000000000e+00   3.000000000000e+00   3.000000000000e+00   3.000000000000e+00   3.000000000000e+00   3.000000000000e+00 
  3.000000000000e+00   3.000000000000e+00   3.000000000000e+00   3.000000000000e+00   3.000000000000e+00   3.000000000000e+00   3.000000000000e+00   3.000000000000e+00   3.000000000000e+00 
  3.000000000000e+00   3.000000000000e+00   3.000000000000e+00   3.000000000000e+00   3.000000000000e+00   3.000000000000e+00   3.000000000000e+00   3.000000000000e+00   3.000000000000e+00 
  3.000000000000e+00   3.000000000000e+00   3.000000000000e+00   3.000000000000e+00   3.000000000000e+00   3.000000000000e+00   3.000000000000e+00   3.000000000000e+00   3.000000000000e+00 
  3.000000000000e+00   3.000000000000e+00   3.000000000000e+00   3.000000000000e+00   3.000000000000e+00   3.000000000000e+00   3.000000000000e+00   3.000000000000e+00   3.000000000000e+00 
  3.000000000000e+00   3.000000000000e+00   3.000000000000e+00   3.000000000000e+00   3.000000000000e+00   3.000000000000e+00   3.000000000000e+00   3.000000000000e+00   3.000000000000e+00 
  3.000000000000e+00   3.000000000000e+00   3.000000000000e+00   3.000000000000e+00   3.000000000000e+00   3.000000000000e+00   3.000000000000e+00   1.000000000000e+00   1.000000000000e+00 
  1.000000000000e+00   1.000000000000e+00   1.000000000000e+00   1.000000000000e+00   1.000000000000e+00   1.000000000000e+00   1.000000000000e+00   1.000000000000e+00   1.000000000000e+00 
  1.000000000000e+00   1.000000000000e+00   1.000000000000e+00   1.000000000000e+00   1.000000000000e+00   1.000000000000e+00   1.000000000000e+00   3.000000000000e+00   3.000000000000e+00 
  1.000000000000e+00   1.000000000000e+00   1.000000000000e+00   1.000000000000e+00   1.000000000000e+00   1.000000000000e+00   1.000000000000e+00   1.000000000000e+00   1.000000000000e+00 
  1.000000000000e+00   1.000000000000e+00   1.000000000000e+00   1.000000000000e+00   1.000000000000e+00   1.000000000000e+00   1.000000000000e+00   1.000000000000e+00   1.000000000000e+00 
  3.000000000000e+00   3.000000000000e+00   1.000000000000e+00   1.000000000000e+00   1.000000000000e+00   1.000000000000e+00   1.000000000000e+00   1.000000000000e+00   1.000000000000e+00 
  1.000000000000e+00   1.000000000000e+00   1.000000000000e+00   1.000000000000e+00   1.000000000000e+00   1.000000000000e+00   1.000000000000e+00   1.000000000000e+00   1.000000000000e+00 
  1.000000000000e+00   1.000000000000e+00   3.000000000000e+00   3.000000000000e+00   1.000000000000e+00   1.000000000000e+00   1.000000000000e+00   1.000000000000e+00   1.000000000000e+00 
  1.000000000000e+00   1.000000000000e+00   1.000000000000e+00   1.000000000000e+00   1.000000000000e+00   1.000000000000e+00   1.000000000000e+00   1.000000000000e+00   1.000000000000e+00 
  1.000000000000e+00   1.000000000000e+00   1.000000000000e+00   1.000000000000e+00   3.000000000000e+00   3.000000000000e+00   1.000000000000e+00   1.000000000000e+00   1.000000000000e+00 
  1.000000000000e+00   1.000000000000e+00   1.000000000000e+00   1.000000000000e+00   1.000000000000e+00   1.000000000000e+00   1.000000000000e+00   1.000000000000e+00   1.000000000000e+00 
  1.000000000000e+00   1.000000000000e+00   1.000000000000e+00   1.000000000000e+00   1.000000000000e+00   1.000000000000e+00   3.000000000000e+00   3.000000000000e+00   1.000000000000e+00 
  1.000000000000e+00   1.000000000000e+00   1.000000000000e+00   1.000000000000e+00   1.000000000000e+00   1.000000000000e+00   1.000000000000e+00   1.000000000000e+00   1.000000000000e+00 
  1.000000000000e+00   1.000000000000e+00   1.000000000000e+00   1.000000000000e+00   1.000000000000e+00   1.000000000000e+00   1.000000000000e+00   1.000000000000e+00   3.000000000000e+00 
  3.000000000000e+00   1.000000000000e+00   1.000000000000e+00   1.000000000000e+00   1.000000000000e+00   1.000000000000e+00   1.000000000000e+00   1.000000000000e+00   1.000000000000e+00 
  1.000000000000e+00   1.000000000000e+00   1.000000000000e+00   1.000000000000e+00   1.000000000000e+00   1.000000000000e+00   1.000000000000e+00   1.000000000000e+00   1.000000000000e+00 
  1.000000000000e+00   3.000000000000e+00   3.000000000000e+00   1.000000000000e+00   1.000000000000e+00   1.000000000000e+00   1.000000000000e+00   1.000000000000e+00   1.000000000000e+00 
  1.000000000000e+00   1.000000000000e+00   1.000000000000e+00   1.000000000000e+00   1.000000000000e+00   1.000000000000e+00   1.000000000000e+00   1.000000000000e+00   1.000000000000e+00 
  1.000000000000e+00   1.000000000000e+00   1.000000000000e+00   3.000000000000e+00   3.000000000000e+00   1.000000000000e+00   1.000000000000e+00   1.000000000000e+00   1.000000000000e+00 
  1.000000000000e+00   1.000000000000e+00   1.000000000000e+00   1.000000000000e+00   1.000000000000e+00   1.000000000000e+00   1.000000000000e+00   1.000000000000e+00   1.000000000000e+00 
  1.000000000000e+00   1.000000000000e+00   1.000000000000e+00   1.000000000000e+00   1.000000000000e+00   3.000000000000e+00   3.000000000000e+00   1.000000000000e+00   1.000000000000e+00 
  1.000000000000e+00   1.000000000000e+00   1.000000000000e+00   1.000000000000e+00   1.000000000000e+00   1.000000000000e+00   1.000000000000e+00   1.000000000000e+00   1.000000000000e+00 
  1.000000000000e+00   1.000000000000e+00   1.000000000000e+00   1.000000000000e+00   1.000000000000e+00   1.000000000000e+00   1.000000000000e+00   3.000000000000e+00   3.000000000000e+00 
  1.000000000000e+00   1.000000000000e+00   1.000000000000e+00   1.000000000000e+00   1.000000000000e+00   1.000000000000e+00   1.000000000000e+00   1.000000000000e+00   1.000000000000e+00 
  1.000000000000e+00   1.000000000000e+00   1.000000000000e+00   1.000000000000e+00   1.000000000000e+00   1.000000000000e+00   1.000000000000e+00   1.000000000000e+00   1.000000000000e+00 
  3.000000000000e+00   3.000000000000e+00   0.000000000000e+00   0.000000000000e+00   0.000000000000e+00   0.000000000000e+00   0.000000000000e+00   0.000000000000e+00   0.000000000000e+00 
  0.000000000000e+00   0.000000000000e+00   0.000000000000e+00   0.000000000000e+00   0.000000000000e+00   0.000000000000e+00   0.000000000000e+00   0.000000000000e+00   0.000000000000e+00 
  0.000000000000e+00   0.000000000000e+00   3.000000000000e+00   3.000000000000e+00   0.000000000000e+00   0.000000000000e+00   0.000000000000e+00   0.000000000000e+00   0.000000000000e+00 
  0.000000000000e+00   0.000000000000e+00   0.000000000000e+00   0.000000000000e+00   0.000000000000e+00   0.000000000000e+00   0.000000000000e+00   0.000000000000e+00   0.000000000000e+00 
  0.000000000000e+00   0.000000000000e+00   0.000000000000e+00   0.000000000000e+00   3.000000000000e+00   3.000000000000e+00   0.000000000000e+00   0.000000000000e+00   0.000000000000e+00 
  0.000000000000e+00   0.000000000000e+00   0.000000000000e+00   0.000000000000e+00   0.000000000000e+00   0.000000000000e+00   0.000000000000e+00   0.000000000000e+00   0.000000000000e+00 
  0.000000000000e+00   0.000000000000e+00   0.000000000000e+00   0.000000000000e+00   0.000000000000e+00   0.000000000000e+00   3.000000000000e+00   3.000000000000e+00   0.000000000000e+00 
  0.000000000000e+00   0.000000000000e+00   0.000000000000e+00   0.000000000000e+00   0.000000000000e+00   0.000000000000e+00   0.000000000000e+00   0.000000000000e+00   0.000000000000e+00 
  0.000000000000e+00   0.000000000000e+00   0.000000000000e+00   0.000000000000e+00   0.000000000000e+00   0.000000000000e+00   0.000000000000e+00   0.000000000000e+00   3.000000000000e+00 
  3.000000000000e+00   0.000000000000e+00   0.000000000000e+00   0.000000000000e+00   0.000000000000e+00   0.000000000000e+00   0.000000000000e+00   0.000000000000e+00   0.000000000000e+00 
  0.000000000000e+00   0.000000000000e+00   0.000000000000e+00   0.000000000000e+00   0.000000000000e+00   0.000000000000e+00   0.000000000000e+00   0.000000000000e+00   0.000000000000e+00 
  0.000000000000e+00   3.000000000000e+00   3.000000000000e+00   0.000000000000e+00   0.000000000000e+00   0.000000000000e+00   0.000000000000e+00   0.000000000000e+00   0.000000000000e+00 
  0.000000000000e+00   0.000000000000e+00   0.000000000000e+00   0.000000000000e+00   0.000000000000e+00   0.000000000000e+00   0.000000000000e+00   0.000000000000e+00   0.000000000000e+00 
  0.000000000000e+00   0.000000000000e+00   0.000000000000e+00   3.000000000000e+00   3.000000000000e+00   0.000000000000e+00   0.000000000000e+00   0.000000000000e+00   0.000000000000e+00 
  0.000000000000e+00   0.000000000000e+00   0.000000000000e+00   0.000000000000e+00   0.000000000000e+00   0.000000000000e+00   0.000000000000e+00   0.000000000000e+00   0.000000000000e+00 
  0.000000000000e+00   0.000000000000e+00   0.000000000000e+00   0.000000000000e+00   0.000000000000e+00   3.000000000000e+00   3.000000000000e+00   3.000000000000e+00   3.000000000000e+00 
  3.000000000000e+00   3.000000000000e+00   3.000000000000e+00   3.000000000000e+00   3.000000000000e+00   3.000000000000e+00   3.000000000000e+00   3.000000000000e+00   3.000000000000e+00 
  3.000000000000e+00   3.000000000000e+00   3.000000000000e+00   3.000000000000e+00   3.000000000000e+00   3.000000000000e+00   3.000000000000e+00   3.000000000000e+00   3.000000000000e+00 
  3.000000000000e+00   3.000000000000e+00   3.000000000000e+00   3.000000000000e+00   3.000000000000e+00   3.000000000000e+00   3.000000000000e+00   3.000000000000e+00   3.000000000000e+00 
  3.000000000000e+00   3.000000000000e+00   3.000000000000e+00   3.000000000000e+00   3.000000000000e+00   3.000000000000e+00   3.000000000000e+00   3.000000000000e+00   3.000000000000e+00 
  3.000000000000e+00   3.000000000000e+00   1.000000000000e+00   1.000000000000e+00   1.000000000000e+00   1.000000000000e+00   1.000000000000e+00   1.000000000000e+00   1.000000000000e+00 
  1.000000000000e+00   1.000000000000e+00   1.000000000000e+00   1.000000000000e+00   1.000000000000e+00   1.000000000000e+00   1.000000000000e+00   1.000000000000e+00   1.000000000000e+00 
  1.000000000000e+00   1.000000000000e+00   3.000000000000e+00   3.000000000000e+00   1.000000000000e+00   1.000000000000e+00   1.000000000000e+00   1.000000000000e+00   1.000000000000e+00 
  1.000000000000e+00   1.000000000000e+00   1.000000000000e+00   1.000000000000e+00   1.000000000000e+00   1.000000000000e+00   1.000000000000e+00   1.000000000000e+00   1.000000000000e+00 
  1.000000000000e+00   1.000000000000e+00   1.000000000000e+00   1.000000000000e+00   3.000000000000e+00   3.000000000000e+00   1.000000000000e+00   1.000000000000e+00   1.000000000000e+00 
  1.000000000000e+00   1.000000000000e+00   1.000000000000e+00   1.000000000000e+00   1.000000000000e+00   1.000000000000e+00   1.000000000000e+00   1.000000000000e+00   1.000000000000e+00 
  1.000000000000e+00   1.000000000000e+00   1.000000000000e+00   1.000000000000e+00   1.000000000000e+00   1.000000000000e+00   3.000000000000e+00   3.000000000000e+00   1.000000000000e+00 
  1.000000000000e+00   1.000000000000e+00   1.000000000000e+00   1.000000000000e+00   1.000000000000e+00   1.000000000000e+00   1.000000000000e+00   1.000000000000e+00   1.000000000000e+00 
  1.000000000000e+00   1.000000000000e+00   1.000000000000e+00   1.000000000000e+00   1.000000000000e+00   1.000000000000e+00   1.000000000000e+00   1.000000000000e+00   3.000000000000e+00 
  3.000000000000e+00   1.000000000000e+00   1.000000000000e+00   1.000000000000e+00   1.000000000000e+00   1.000000000000e+00   1.000000000000e+00   1.000000000000e+00   1.000000000000e+00 
  1.000000000000e+00   1.000000000000e+00   1.000000000000e+00   1.000000000000e+00   1.000000000000e+00   1.000000000000e+00   1.000000000000e+00   1.000000000000e+00   1.000000000000e+00 
  1.000000000000e+00   3.000000000000e+00   3.000000000000e+00   1.000000000000e+00   1.000000000000e+00   1.000000000000e+00   1.000000000000e+00   1.000000000000e+00   1.000000000000e+00 
  1.000000000000e+00   1.000000000000e+00   1.000000000000e+00   1.000000000000e+00   1.000000000000e+00   1.000000000000e+00   1.000000000000e+00   1.000000000000e+00   1.000000000000e+00 
  1.000000000000e+00   1.000000000000e+00   1.000000000000e+00   3.000000000000e+00   3.000000000000e+00   1.000000000000e+00   1.000000000000e+00   1.000000000000e+00   1.000000000000e+00 
  1.000000000000e+00   1.000000000000e+00   1.000000000000e+00   1.000000000000e+00   1.000000000000e+00   1.000000000000e+00   1.000000000000e+00   1.000000000000e+00   1.000000000000e+00 
  1.000000000000e+00   1.000000000000e+00   1.000000000000e+00   1.000000000000e+00   1.000000000000e+00   3.000000000000e+00   3.000000000000e+00   1.000000000000e+00   1.000000000000e+00 
  1.000000000000e+00   1.000000000000e+00   1.000000000000e+00   1.000000000000e+00   1.000000000000e+00   1.000000000000e+00   1.000000000000e+00   1.000000000000e+00   1.000000000000e+00 
  1.000000000000e+00   1.000000000000e+00   1.000000000000e+00   1.000000000000e+00   1.000000000000e+00   1.000000000000e+00   1.000000000000e+00   3.000000000000e+00   3.000000000000e+00 
  1.000000000000e+00   1.000000000000e+00   1.000000000000e+00   1.000000000000e+00   1.000000000000e+00   1.000000000000e+00   1.000000000000e+00   1.000000000000e+00   1.000000000000e+00 
  1.000000000000e+00   1.000000000000e+00   1.000000000000e+00   1.000000000000e+00   1.000000000000e+00   1.000000000000e+00   1.000000000000e+00   1.000000000000e+00   1.000000000000e+00 
  3.000000000000e+00   3.000000000000e+00   1.000000000000e+00   1.000000000000e+00   1.000000000000e+00   1.000000000000e+00   1.000000000000e+00   1.000000000000e+00   1.000000000000e+00 
  1.000000000000e+00   1.000000000000e+00   1.000000000000e+00   1.000000000000e+00   1.000000000000e+00   1.000000000000e+00   1.000000000000e+00   1.000000000000e+00   1.000000000000e+00 
  1.000000000000e+00   1.000000000000e+00   3.000000000000e+00   3.000000000000e+00   1.000000000000e+00   1.000000000000e+00   1.000000000000e+00   1.000000000000e+00   1.000000000000e+00 
  1.000000000000e+00   1.000000000000e+00   1.000000000000e+00   1.000000000000e+00   1.000000000000e+00   1.000000000000e+00   1.000000000000e+00   1.000000000000e+00   1.000000000000e+00 
  1.000000000000e+00   1.000000000000e+00   1.000000000000e+00   1.000000000000e+00   3.000000000000e+00   3.000000000000e+00   0.000000000000e+00   0.000000000000e+00   0.000000000000e+00 
  0.000000000000e+00   0.000000000000e+00   0.000000000000e+00   0.000000000000e+00   0.000000000000e+00   0.000000000000e+00   0.000000000000e+00   0.000000000000e+00   0.000000000000e+00 
  0.000000000000e+00   0.000000000000e+00   0.000000000000e+00   0.000000000000e+00   0.000000000000e+00   0.000000000000e+00   3.000000000000e+00   3.000000000000e+00   0.000000000000e+00 
  0.000000000000e+00   0.000000000000e+00   0.000000000000e+00   0.000000000000e+00   0.000000000000e+00   0.000000000000e+00   0.000000000000e+00   0.000000000000e+00   0.000000000000e+00 
  0.000000000000e+00   0.000000000000e+00   0.000000000000e+00   0.000000000000e+00   0.000000000000e+00   0.000000000000e+00   0.000000000000e+00   0.000000000000e+00   3.000000000000e+00 
  3.000000000000e+00   0.000000000000e+00   0.000000000000e+00   0.000000000000e+00   0.000000000000e+00   0.000000000000e+00   0.000000000000e+00   0.000000000000e+00   0.000000000000e+00 
  0.000000000000e+00   0.000000000000e+00   0.000000000000e+00   0.000000000000e+00   0.000000000000e+00   0.000000000000e+00   0.000000000000e+00   0.000000000000e+00   0.000000000000e+00 
  0.000000000000e+00   3.000000000000e+00   3.000000000000e+00   0.000000000000e+00   0.000000000000e+00   0.000000000000e+00   0.000000000000e+00   0.000000000000e+00   0.000000000000e+00 
  0.000000000000e+00   0.000000000000e+00   0.000000000000e+00   0.000000000000e+00   0.000000000000e+00   0.000000000000e+00   0.000000000000e+00   0.000000000000e+00   0.000000000000e+00 
  0.000000000000e+00   0.000000000000e+00   0.000000000000e+00   3.000000000000e+00   3.000000000000e+00   0.000000000000e+00   0.000000000000e+00   0.000000000000e+00   0.000000000000e+00 
  0.000000000000e+00   0.000000000000e+00   0.000000000000e+00   0.000000000000e+00   0.000000000000e+00   0.000000000000e+00   0.000000000000e+00   0.000000000000e+00   0.000000000000e+00 
  0.000000000000e+00   0.000000000000e+00   0.000000000000e+00   0.000000000000e+00   0.000000000000e+00   3.000000000000e+00   3.000000000000e+00   0.000000000000e+00   0.000000000000e+00 
  0.000000000000e+00   0.000000000000e+00   0.000000000000e+00   0.000000000000e+00   0.000000000000e+00   0.000000000000e+00   0.000000000000e+00   0.000000000000e+00   0.000000000000e+00 
  0.000000000000e+00   0.000000000000e+00   0.000000000000e+00   0.000000000000e+00   0.000000000000e+00   0.000000000000e+00   0.000000000000e+00   3.000000000000e+00   3.000000000000e+00 
  0.000000000000e+00   0.000000000000e+00   0.000000000000e+00   0.000000000000e+00   0.000000000000e+00   0.000000000000e+00   0.000000000000e+00   0.000000000000e+00   0.000000000000e+00 
  0.000000000000e+00   0.000000000000e+00   0.000000000000e+00   0.000000000000e+00   0.000000000000e+00   0.000000000000e+00   0.000000000000e+00   0.000000000000e+00   0.000000000000e+00 
  3.000000000000e+00   3.000000000000e+00   3.000000000000e+00   3.000000000000e+00   3.000000000000e+00   3.000000000000e+00   3.000000000000e+00   3.000000000000e+00   3.000000000000e+00 
  3.000000000000e+00   3.000000000000e+00   3.000000000000e+00   3.000000000000e+00   3.000000000000e+00   3.000000000000e+00   3.000000000000e+00   3.000000000000e+00   3.000000000000e+00 
  3.000000000000e+00   3.000000000000e+00   3.000000000000e+00   3.000000000000e+00   3.000000000000e+00   3.000000000000e+00   3.000000000000e+00   3.000000000000e+00   3.000000000000e+00 
  3.000000000000e+00   3.000000000000e+00   3.000000000000e+00   3.000000000000e+00   3.000000000000e+00   3.000000000000e+00   3.000000000000e+00   3.000000000000e+00   3.000000000000e+00 
  3.000000000000e+00   3.000000000000e+00   3.000000000000e+00   3.000000000000e+00   3.000000000000e+00   3.000000000000e+00   1.000000000000e+00   1.000000000000e+00   1.000000000000e+00 
  1.000000000000e+00   1.000000000000e+00   1.000000000000e+00   1.000000000000e+00   1.000000000000e+00   1.000000000000e+00   1.000000000000e+00   1.000000000000e+00   1.000000000000e+00 
  1.000000000000e+00   1.000000000000e+00   1.000000000000e+00   1.000000000000e+00   1.000000000000e+00   1.000000000000e+00   3.000000000000e+00   3.000000000000e+00   1.000000000000e+00 
  1.000000000000e+00   1.000000000000e+00   1.000000000000e+00   1.000000000000e+00   1.000000000000e+00   1.000000000000e+00   1.000000000000e+00   1.000000000000e+00   1.000000000000e+00 
  1.000000000000e+00   1.000000000000e+00   1.000000000000e+00   1.000000000000e+00   1.000000000000e+00   1.000000000000e+00   1.000000000000e+00   1.000000000000e+00   3.000000000000e+00 
  3.000000000000e+00   1.000000000000e+00   1.000000000000e+00   1.000000000000e+00   1.000000000000e+00   1.000000000000e+00   1.000000000000e+00   1.000000000000e+00   1.000000000000e+00 
  1.000000000000e+00   1.000000000000e+00   1.000000000000e+00   1.000000000000e+00   1.000000000000e+00   1.000000000000e+00   1.000000000000e+00   1.000000000000e+00   1.000000000000e+00 
  1.000000000000e+00   3.000000000000e+00   3.000000000000e+00   1.000000000000e+00   1.000000000000e+00   1.000000000000e+00   1.000000000000e+00   1.000000000000e+00   1.000000000000e+00 
  1.000000000000e+00   1.000000000000e+00   1.000000000000e+00   1.000000000000e+00   1.000000000000e+00   1.000000000000e+00   1.000000000000e+00   1.000000000000e+00   1.000000000000e+00 
  1.000000000000e+00   1.000000000000e+00   1.000000000000e+00   3.000000000000e+00   3.000000000000e+00   1.000000000000e+00   1.000000000000e+00   1.000000000000e+00   1.000000000000e+00 
  1.000000000000e+00   1.000000000000e+00   1.000000000000e+00   1.000000000000e+00   1.000000000000e+00   1.000000000000e+00   1.000000000000e+00   1.000000000000e+00   1.000000000000e+00 
  1.000000000000e+00   1.000000000000e+00   1.000000000000e+00   1.000000000000e+00   1.000000000000e+00   3.000000000000e+00   3.000000000000e+00   1.000000000000e+00   1.000000000000e+00 
  1.000000000000e+00   1.000000000000e+00   1.000000000000e+00   1.000000000000e+00   1.000000000000e+00   1.000000000000e+00   1.000000000000e+00   1.000000000000e+00   1.000000000000e+00 
  1.000000000000e+00   1.000000000000e+00   1.000000000000e+00   1.000000000000e+00   1.000000000000e+00   1.000000000000e+00   1.000000000000e+00   3.000000000000e+00   3.000000000000e+00 