# vtk DataFile Version 2.0
Written using VisIt writer
ASCII
DATASET RECTILINEAR_GRID
DIMENSIONS 20 20 20
X_COORDINATES 20 float
  0.000000000000e+00   1.000000000000e+00   2.000000000000e+00   3.000000000000e+00   4.000000000000e+00   5.000000000000e+00   6.000000000000e+00   7.000000000000e+00   8.000000000000e+00 
  9.000000000000e+00   1.000000000000e+01   1.100000000000e+01   1.200000000000e+01   1.300000000000e+01   1.400000000000e+01   1.500000000000e+01   1.600000000000e+01   1.700000000000e+01 
  1.800000000000e+01   1.900000000000e+01 
Y_COORDINATES 20 float
  0.000000000000e+00   1.000000000000e+00   2.000000000000e+00   3.000000000000e+00   4.000000000000e+00   5.000000000000e+00   6.000000000000e+00   7.000000000000e+00   8.000000000000e+00 
  9.000000000000e+00   1.000000000000e+01   1.100000000000e+01   1.200000000000e+01   1.300000000000e+01   1.400000000000e+01   1.500000000000e+01   1.600000000000e+01   1.700000000000e+01 
  1.800000000000e+01   1.900000000000e+01 
Z_COORDINATES 20 float
  0.000000000000e+00   1.000000000000e+00   2.000000000000e+00   3.000000000000e+00   4.000000000000e+00   5.000000000000e+00   6.000000000000e+00   7.000000000000e+00   8.000000000000e+00 
  9.000000000000e+00   1.000000000000e+01   1.100000000000e+01   1.200000000000e+01   1.300000000000e+01   1.400000000000e+01   1.500000000000e+01   1.600000000000e+01   1.700000000000e+01 
  1.800000000000e+01   1.900000000000e+01 
CELL_DATA 6859
POINT_DATA 8000
SCALARS pressure float
LOOKUP_TABLE default
  0.000000000000e+00   0.000000000000e+00   0.000000000000e+00   0.000000000000e+00   0.000000000000e+00   0.000000000000e+00   0.000000000000e+00   0.000000000000e+00   0.000000000000e+00 
  0.000000000000e+00   0.000000000000e+00   0.000000000000e+00   0.000000000000e+00   0.000000000000e+00   0.000000000000e+00   0.000000000000e+00   0.000000000000e+00   0.000000000000e+00 
  0.000000000000e+00   0.000000000000e+00   0.000000000000e+00   0.000000000000e+00   0.000000000000e+00   0.000000000000e+00   0.000000000000e+00   0.000000000000e+00   0.000000000000e+00 
  0.000000000000e+00   0.000000000000e+00   0.000000000000e+00   0.000000000000e+00   0.000000000000e+00   0.000000000000e+00   0.000000000000e+00   0.000000000000e+00   0.000000000000e+00 
  0.000000000000e+00   0.000000000000e+00   0.000000000000e+00   0.000000000000e+00   0.000000000000e+00   0.000000000000e+00   0.000000000000e+00   0.000000000000e+00   0.000000000000e+00 
  0.000000000000e+00   0.000000000000e+00   0.000000000000e+00   0.000000000000e+00   0.000000000000e+00   0.000000000000e+00   0.000000000000e+00   0.000000000000e+00   0.000000000000e+00 
  0.000000000000e+00   0.000000000000e+00   0.000000000000e+00   0.000000000000e+00   0.000000000000e+00   0.000000000000e+00   0.000000000000e+00   0.000000000000e+00   0.000000000000e+00 
  0.000000000000e+00   0.000000000000e+00   0.000000000000e+00   0.000000000000e+00   0.000000000000e+00   0.000000000000e+00   0.000000000000e+00   0.000000000000e+00   0.000000000000e+00 
  0.000000000000e+00   0.000000000000e+00   0.000000000000e+00   0.000000000000e+00   0.000000000000e+00   0.000000000000e+00   0.000000000000e+00   0.000000000000e+00   0.000000000000e+00 
  0.000000000000e+00   0.000000000000e+00   0.000000000000e+00   0.000000000000e+00   0.000000000000e+00   0.000000000000e+00   0.000000000000e+00   0.000000000000e+00   0.000000000000e+00 
  0.000000000000e+00   0.000000000000e+00   0.000000000000e+00   0.000000000000e+00   0.000000000000e+00   0.000000000000e+00   0.000000000000e+00   0.000000000000e+00   0.000000000000e+00 
  0.000000000000e+00   0.000000000000e+00   0.000000000000e+00   0.000000000000e+00   0.000000000000e+00   0.000000000000e+00   0.000000000000e+00   0.000000000000e+00   0.000000000000e+00 
  0.000000000000e+00   0.000000000000e+00   0.000000000000e+00   0.000000000000e+00   0.000000000000e+00   0.000000000000e+00   0.000000000000e+00   0.000000000000e+00   0.000000000000e+00 
  0.000000000000e+00   0.000000000000e+00   0.000000000000e+00   0.000000000000e+00   0.000000000000e+00   0.000000000000e+00   0.000000000000e+00   0.000000000000e+00   0.000000000000e+00 
  0.000000000000e+00   0.000000000000e+00   0.000000000000e+00   0.000000000000e+00   0.000000000000e+00   0.000000000000e+00   0.000000000000e+00   0.000000000000e+00   0.000000000000e+00 
  0.000000000000e+00   0.000000000000e+00   0.000000000000e+00   0.000000000000e+00   0.000000000000e+00   0.000000000000e+00   0.000000000000e+00   0.000000000000e+00   0.000000000000e+00 
  0.000000000000e+00   0.000000000000e+00   0.000000000000e+00   0.000000000000e+00   0.000000000000e+00   0.000000000000e+00   0.000000000000e+00   0.000000000000e+00   0.000000000000e+00 
  0.000000000000e+00   0.000000000000e+00   0.000000000000e+00   0.000000000000e+00   0.000000000000e+00   0.000000000000e+00   0.000000000000e+00   0.000000000000e+00   0.000000000000e+00 
  0.000000000000e+00   0.000000000000e+00   0.000000000000e+00   0.000000000000e+00   0.000000000000e+00   0.000000000000e+00   0.000000000000e+00   0.000000000000e+00   0.000000000000e+00 
  0.000000000000e+00   0.000000000000e+00   0.000000000000e+00   0.000000000000e+00   0.000000000000e+00   0.000000000000e+00   0.000000000000e+00   0.000000000000e+00   0.000000000000e+00 
  0.000000000000e+00   0.000000000000e+00   0.000000000000e+00   0.000000000000e+00   0.000000000000e+00   0.000000000000e+00   0.000000000000e+00   0.000000000000e+00   0.000000000000e+00 
  0.000000000000e+00   0.000000000000e+00   0.000000000000e+00   0.000000000000e+00   0.000000000000e+00   0.000000000000e+00   0.000000000000e+00   0.000000000000e+00   0.000000000000e+00 
  0.000000000000e+00   0.000000000000e+00   0.000000000000e+00   0.000000000000e+00   0.000000000000e+00   0.000000000000e+00   0.000000000000e+00   0.000000000000e+00   0.000000000000e+00 
  0.000000000000e+00   0.000000000000e+00   0.000000000000e+00   0.000000000000e+00   0.000000000000e+00   0.000000000000e+00   0.000000000000e+00   0.000000000000e+00   0.000000000000e+00 
  0.000000000000e+00   0.000000000000e+00   0.000000000000e+00   0.000000000000e+00   0.000000000000e+00   0.000000000000e+00   0.000000000000e+00   0.000000000000e+00   0.000000000000e+00 
  0.000000000000e+00   0.000000000000e+00   0.000000000000e+00   0.000000000000e+00   0.000000000000e+00   0.000000000000e+00   0.000000000000e+00   0.000000000000e+00   0.000000000000e+00 
  0.000000000000e+00   0.000000000000e+00   0.000000000000e+00   0.000000000000e+00   0.000000000000e+00   0.000000000000e+00   0.000000000000e+00   0.000000000000e+00   0.000000000000e+00 
  0.000000000000e+00   0.000000000000e+00   0.000000000000e+00   0.000000000000e+00   0.000000000000e+00   0.000000000000e+00   0.000000000000e+00   0.000000000000e+00   0.000000000000e+00 
  0.000000000000e+00   0.000000000000e+00   0.000000000000e+00   0.000000000000e+00   0.000000000000e+00   0.000000000000e+00   0.000000000000e+00   0.000000000000e+00   0.000000000000e+00 
  0.000000000000e+00   0.000000000000e+00   0.000000000000e+00   0.000000000000e+00   0.000000000000e+00   0.000000000000e+00   0.000000000000e+00   0.000000000000e+00   0.000000000000e+00 
  0.000000000000e+00   0.000000000000e+00   0.000000000000e+00   0.000000000000e+00   0.000000000000e+00   0.000000000000e+00   0.000000000000e+00   0.000000000000e+00   0.000000000000e+00 
  0.000000000000e+00   0.000000000000e+00   0.000000000000e+00   0.000000000000e+00   0.000000000000e+00   0.000000000000e+00   0.000000000000e+00   0.000000000000e+00   0.000000000000e+00 
  0.000000000000e+00   0.000000000000e+00   0.000000000000e+00   0.000000000000e+00   0.000000000000e+00   0.000000000000e+00   0.000000000000e+00   0.000000000000e+00   0.000000000000e+00 
  0.000000000000e+00   0.000000000000e+00   0.000000000000e+00   0.000000000000e+00   0.000000000000e+00   0.000000000000e+00   0.000000000000e+00   0.000000000000e+00   0.000000000000e+00 
  0.000000000000e+00   0.000000000000e+00   0.000000000000e+00   0.000000000000e+00   0.000000000000e+00   0.000000000000e+00   0.000000000000e+00   0.000000000000e+00   0.000000000000e+00 
  0.000000000000e+00   0.000000000000e+00   0.000000000000e+00   0.000000000000e+00   0.000000000000e+00   0.000000000000e+00   0.000000000000e+00   0.000000000000e+00   0.000000000000e+00 
  0.000000000000e+00   0.000000000000e+00   0.000000000000e+00   0.000000000000e+00   0.000000000000e+00   0.000000000000e+00   0.000000000000e+00   0.000000000000e+00   0.000000000000e+00 
  0.000000000000e+00   0.000000000000e+00   0.000000000000e+00   0.000000000000e+00   0.000000000000e+00   0.000000000000e+00   0.000000000000e+00   0.000000000000e+00   0.000000000000e+00 
  0.000000000000e+00   0.000000000000e+00   0.000000000000e+00   0.000000000000e+00   0.000000000000e+00   0.000000000000e+00   0.000000000000e+00   0.000000000000e+00   0.000000000000e+00 
  0.000000000000e+00   0.000000000000e+00   0.000000000000e+00   0.000000000000e+00   0.000000000000e+00   0.000000000000e+00   0.000000000000e+00   0.000000000000e+00   0.000000000000e+00 
  0.000000000000e+00   0.000000000000e+00   0.000000000000e+00   0.000000000000e+00   0.000000000000e+00   0.000000000000e+00   0.000000000000e+00   0.000000000000e+00   0.000000000000e+00 
  0.000000000000e+00   0.000000000000e+00   0.000000000000e+00   0.000000000000e+00   0.000000000000e+00   0.000000000000e+00   0.000000000000e+00   0.000000000000e+00   0.000000000000e+00 
  0.000000000000e+00   0.000000000000e+00   0.000000000000e+00   0.000000000000e+00   0.000000000000e+00   0.000000000000e+00   0.000000000000e+00   0.000000000000e+00   0.000000000000e+00 
  0.000000000000e+00   0.000000000000e+00   0.000000000000e+00   0.000000000000e+00   0.000000000000e+00   0.000000000000e+00   0.000000000000e+00   0.000000000000e+00   0.000000000000e+00 
  0.000000000000e+00   0.000000000000e+00   0.000000000000e+00   0.000000000000e+00   0.000000000000e+00   0.000000000000e+00   0.000000000000e+00   0.000000000000e+00   0.000000000000e+00 
  0.000000000000e+00   0.000000000000e+00   0.000000000000e+00   0.000000000000e+00   0.000000000000e+00   0.000000000000e+00   0.000000000000e+00   0.000000000000e+00   0.000000000000e+00 
  0.000000000000e+00   0.000000000000e+00   0.000000000000e+00   0.000000000000e+00   0.000000000000e+00   0.000000000000e+00   0.000000000000e+00   3.802021026611e+00   3.811515331268e+00 
  3.771433115005e+00   3.733907938004e+00   3.737750291824e+00   3.756452083588e+00   3.813927173615e+00   3.894107341766e+00   4.056674480438e+00   4.171599864960e+00   4.333086013794e+00 
  4.487698554993e+00   4.618460655212e+00   4.721945762634e+00   4.752460479736e+00   4.732260704041e+00   4.691342830658e+00   4.735684871674e+00   0.000000000000e+00   0.000000000000e+00 
  3.801450967789e+00   3.770796775818e+00   3.717350721359e+00   3.666700124741e+00   3.681411981583e+00   3.705215454102e+00   3.726160764694e+00   3.783827304840e+00   3.950357198715e+00 
  4.158329963684e+00   4.358715534210e+00   4.542658805847e+00   4.683345317841e+00   4.769752502441e+00   4.798964500427e+00   4.795506000519e+00   4.773199558258e+00   4.814237117767e+00 
  0.000000000000e+00   0.000000000000e+00   3.743979692459e+00   3.669198513031e+00   3.510060310364e+00   3.363000631332e+00   3.487682580948e+00   3.564710855484e+00   3.515701770782e+00 
  3.479193210602e+00   3.765176057816e+00   4.092692852020e+00   4.353743553162e+00   4.534155368805e+00   4.684422969818e+00   4.791103839874e+00   4.848435401917e+00   4.876707077026e+00 
  4.865010261536e+00   4.917001724243e+00   0.000000000000e+00   0.000000000000e+00   3.706160783768e+00   3.550672531128e+00   3.163969516754e+00   2.532852888107e+00   3.058105230331e+00 
  3.294546842575e+00   3.113558530807e+00   2.635843515396e+00   3.423410177231e+00   3.974247694016e+00   4.333508968353e+00   4.652731418610e+00   4.840942859650e+00   4.875150203705e+00 
  5.009488582611e+00   5.054141998291e+00   5.068583488464e+00   5.109302997589e+00   0.000000000000e+00   0.000000000000e+00   3.925641059875e+00   3.664686203003e+00   2.812047004700e+00 
  4.254472255707e+00   2.737556219101e+00   3.300327539444e+00   2.733156442642e+00   4.437549114227e+00   3.062975645065e+00   4.117801666260e+00   4.654419898987e+00   5.162195205688e+00 
  5.389749526978e+00   5.229140281677e+00   5.245125293732e+00   5.332817077637e+00   5.355224609375e+00   5.399833202362e+00   0.000000000000e+00   0.000000000000e+00   4.287530899048e+00 
  4.126197338104e+00   3.671064138412e+00   3.096978664398e+00   3.703685522079e+00   3.886947154999e+00   3.617477893829e+00   3.231693983078e+00   4.078777790070e+00   4.715075969696e+00 
  5.091275215149e+00   5.330642700195e+00   5.507407188416e+00   5.604370117188e+00   5.674215316772e+00   5.718476772308e+00   5.726590633392e+00   5.773540496826e+00   0.000000000000e+00 
  0.000000000000e+00   4.887797832489e+00   4.755951404572e+00   4.450090408325e+00   4.503937721252e+00   4.700661659241e+00   4.756668090820e+00   4.499913215637e+00   4.617623806000e+00 
  4.959811687469e+00   5.250885009766e+00   5.484472751617e+00   5.616921424866e+00   5.725529193878e+00   5.837491989136e+00   5.950379848480e+00   5.981249809265e+00   5.962034702301e+00 
  6.001119613647e+00   0.000000000000e+00   0.000000000000e+00   5.828196525574e+00   5.734944343567e+00   5.277280807495e+00   5.863604545593e+00   6.039291381836e+00   6.065419673920e+00 
  4.934396266937e+00   5.676216125488e+00   5.967497825623e+00   6.148954391479e+00   6.251963615417e+00   6.341244220734e+00   6.400116443634e+00   6.401910305023e+00   6.417288303375e+00 
  6.458899021149e+00   6.462282657623e+00   6.521169662476e+00   0.000000000000e+00   0.000000000000e+00   6.929918289185e+00   7.021534442902e+00   7.109425544739e+00   7.361322402954e+00 
  7.339966297150e+00   7.066145420074e+00   6.641133308411e+00   6.714432239532e+00   6.848892211914e+00   6.907060623169e+00   6.928034305573e+00   6.793446063995e+00   6.778303623199e+00 
  6.810892105103e+00   6.732702255249e+00   6.760715007782e+00   6.786431789398e+00   6.842001914978e+00   0.000000000000e+00   0.000000000000e+00   8.275553703308e+00   8.631079673767e+00 
  9.243494033813e+00   9.579933166504e+00   9.282232284546e+00   8.657414436340e+00   8.097803115845e+00   7.949288845062e+00   7.981672763824e+00   7.991258621216e+00   8.007624626160e+00 
  7.807361125946e+00   7.619759082794e+00   7.534756183624e+00   7.424151897430e+00   7.440733432770e+00   7.533441543579e+00   7.673032760620e+00   0.000000000000e+00   0.000000000000e+00 
  9.422337532043e+00   1.017468452454e+01   1.145668220520e+01   1.190387630463e+01   1.107114791870e+01   9.868242263794e+00   9.052232742310e+00   8.679114341736e+00   8.681545257568e+00 
  8.699142456055e+00   8.480578422546e+00   8.108081817627e+00   7.783876895905e+00   7.571726322174e+00   7.494143009186e+00   7.530900001526e+00   7.787632942200e+00   8.056140899658e+00 
  0.000000000000e+00   0.000000000000e+00   1.003949356079e+01   1.068552494049e+01   1.172889423370e+01   1.227749061584e+01   1.185205268860e+01   1.095711231232e+01   9.706393241882e+00 
  8.776122093201e+00   9.226935386658e+00   9.766799926758e+00   9.625492095947e+00   8.994633674622e+00   8.221534729004e+00   8.174114227295e+00   8.015252113342e+00   8.085548400879e+00 
  8.670063018799e+00   9.259045600891e+00   0.000000000000e+00   0.000000000000e+00   1.060265731812e+01   1.119690895081e+01   1.217016124725e+01   1.309028720856e+01   1.304246425629e+01 
  1.218875503540e+01   9.721172332764e+00   7.174097537994e+00   9.271040916443e+00   1.072762012482e+01   1.081383609772e+01   9.866226196289e+00   8.362611770630e+00   8.562340736389e+00 
  8.199854850769e+00   8.191835403442e+00   9.828116416931e+00   1.030112075806e+01   0.000000000000e+00   0.000000000000e+00   1.101997470856e+01   1.166314792633e+01   1.314358329773e+01 
  1.482602214813e+01   1.501312351227e+01   1.328741645813e+01   8.987803459167e+00   9.455688476562e+00   8.988066673279e+00   1.249764823914e+01   1.284671783447e+01   1.019404792786e+01 
  7.556084632874e+00   7.816665649414e+00   7.463752746582e+00   7.349640846252e+00   1.168181133270e+01   1.133836269379e+01   0.000000000000e+00   0.000000000000e+00   1.120666885376e+01 
  1.152714729309e+01   1.225749492645e+01   1.318209457397e+01   1.323968601227e+01   1.215425682068e+01   9.936538696289e+00   7.703686714172e+00   9.593196868896e+00   1.113403797150e+01 
  1.118796062469e+01   9.850820541382e+00   8.482177734375e+00   8.115034103394e+00   7.907026290894e+00   8.100007057190e+00   9.970040321350e+00   9.751648902893e+00   0.000000000000e+00 
  0.000000000000e+00   1.103283023834e+01   1.134607028961e+01   1.179487800598e+01   1.208715534210e+01   1.200437641144e+01   1.141814327240e+01   1.045196819305e+01   9.647611618042e+00 
  9.947896957397e+00   1.029673004150e+01   1.014804363251e+01   9.489861488342e+00   8.765026092529e+00   8.464633941650e+00   8.399730682373e+00   8.640453338623e+00   9.316946029663e+00 
  9.435863494873e+00   0.000000000000e+00   0.000000000000e+00   1.131239509583e+01   1.143860340118e+01   1.152835083008e+01   1.166960430145e+01   1.163153648376e+01   1.134066772461e+01 
  1.093694210052e+01   1.052013397217e+01   1.049702835083e+01   1.049319934845e+01   1.021034717560e+01   9.793835639954e+00   9.301524162292e+00   8.944169998169e+00   8.805681228638e+00 
  8.914255142212e+00   9.287437438965e+00   9.494122505188e+00   0.000000000000e+00   0.000000000000e+00   1.102843189240e+01   1.083582592010e+01   1.095968055725e+01   1.091560745239e+01 
  1.069880867004e+01   1.035014438629e+01   9.874363899231e+00   9.602997779846e+00   9.373045921326e+00   9.231255531311e+00   9.096582412720e+00   8.753205299377e+00   8.481564521790e+00 
  8.408491134644e+00   8.433395385742e+00   8.508805274963e+00   8.498710632324e+00   8.510279655457e+00   0.000000000000e+00   0.000000000000e+00   0.000000000000e+00   0.000000000000e+00 
  0.000000000000e+00   0.000000000000e+00   0.000000000000e+00   0.000000000000e+00   0.000000000000e+00   0.000000000000e+00   0.000000000000e+00   0.000000000000e+00   0.000000000000e+00 
  0.000000000000e+00   0.000000000000e+00   0.000000000000e+00   0.000000000000e+00   0.000000000000e+00   0.000000000000e+00   0.000000000000e+00   0.000000000000e+00   0.000000000000e+00 
  0.000000000000e+00   0.000000000000e+00   0.000000000000e+00   0.000000000000e+00   0.000000000000e+00   0.000000000000e+00   0.000000000000e+00   0.000000000000e+00   0.000000000000e+00 
  0.000000000000e+00   0.000000000000e+00   0.000000000000e+00   0.000000000000e+00   0.000000000000e+00   0.000000000000e+00   0.000000000000e+00   0.000000000000e+00   0.000000000000e+00 
  0.000000000000e+00   0.000000000000e+00   2.758553981781e+00   2.833803176880e+00   2.840104103088e+00   2.797282457352e+00   2.777883052826e+00   2.791046857834e+00   2.812724351883e+00 
  2.890980005264e+00   3.029327392578e+00   3.171418190002e+00   3.311738014221e+00   3.455993652344e+00   3.540984630585e+00   3.685472965240e+00   3.677257537842e+00   3.564113616943e+00 
  3.499909877777e+00   3.539813280106e+00   0.000000000000e+00   0.000000000000e+00   2.758339881897e+00   2.778015851974e+00   2.779820442200e+00   2.742607116699e+00   2.727127552032e+00 
  2.728072643280e+00   2.721000909805e+00   2.834327220917e+00   2.951727628708e+00   3.158573150635e+00   3.325965166092e+00   3.481366872787e+00   3.590693473816e+00   3.696843624115e+00 
  3.716020345688e+00   3.663631439209e+00   3.620944023132e+00   3.657089948654e+00   0.000000000000e+00   0.000000000000e+00   2.775322914124e+00   2.764255762100e+00   2.682998418808e+00 
  2.587614536285e+00   2.629460334778e+00   2.674946784973e+00   2.644556045532e+00   2.566109418869e+00   2.783864259720e+00   3.074434280396e+00   3.344060897827e+00   3.528195381165e+00 
  3.667334079742e+00   3.774142742157e+00   3.808322668076e+00   3.823861837387e+00   3.813187837601e+00   3.890897750854e+00   0.000000000000e+00   0.000000000000e+00   2.711129426956e+00 
  2.645491361618e+00   2.445471286774e+00   2.228950262070e+00   2.414233446121e+00   2.623505830765e+00   2.473253965378e+00   2.274407386780e+00   2.654443264008e+00   2.986244440079e+00 
  3.295060873032e+00   3.502623319626e+00   3.644808769226e+00   3.752536773682e+00   3.876367807388e+00   3.913608551025e+00   3.914338588715e+00   3.966499805450e+00   0.000000000000e+00 
  0.000000000000e+00   2.689760208130e+00   2.697766542435e+00   2.375827789307e+00   1.881174683571e+00   2.366591215134e+00   2.750175237656e+00   2.505970716476e+00   1.927462220192e+00 
  2.551537752151e+00   3.103927612305e+00   3.515133142471e+00   3.786221504211e+00   3.935759782791e+00   4.008253097534e+00   4.112370014191e+00   4.192664623260e+00   4.212271213531e+00 
  4.276166915894e+00   0.000000000000e+00   0.000000000000e+00   3.223889112473e+00   3.183300971985e+00   2.841678380966e+00   2.577449321747e+00   3.049829244614e+00   3.079683780670e+00 
  2.759637355804e+00   2.877275705338e+00   3.306419849396e+00   3.659814596176e+00   3.984832525253e+00   4.155208587646e+00   4.337236881256e+00   4.452835083008e+00   4.538035392761e+00 
  4.585729122162e+00   4.581540584564e+00   4.653487682343e+00   0.000000000000e+00   0.000000000000e+00   3.720946788788e+00   3.589255809784e+00   3.115816354752e+00   3.534282207489e+00 
  3.834378480911e+00   4.128338336945e+00   3.235379934311e+00   3.630530118942e+00   3.925421237946e+00   4.211642742157e+00   4.501621723175e+00   4.623939990997e+00   4.727570056915e+00 
  4.874392509460e+00   4.993336677551e+00   5.021783828735e+00   5.031681060791e+00   5.061554908752e+00   0.000000000000e+00   0.000000000000e+00   4.649239063263e+00   4.257547378540e+00 
  4.434422492981e+00   4.429093360901e+00   5.145709037781e+00   5.334393024445e+00   3.126208543777e+00   4.355037212372e+00   4.935694694519e+00   5.068726539612e+00   5.199196338654e+00 
  5.247904777527e+00   5.248900890350e+00   5.289159297943e+00   5.319087505341e+00   5.329512119293e+00   5.341372966766e+00   5.387491226196e+00   0.000000000000e+00   0.000000000000e+00 
  5.803570747375e+00   5.886529922485e+00   5.652076244354e+00   6.317322254181e+00   6.512772560120e+00   6.282663345337e+00   5.240436553955e+00   5.709415435791e+00   5.982096195221e+00 
  6.085854053497e+00   6.046073913574e+00   5.978335857391e+00   5.915478229523e+00   5.910854339600e+00   5.809524059296e+00   5.785193920135e+00   5.794861793518e+00   5.905852317810e+00 
  0.000000000000e+00   0.000000000000e+00   7.061956405640e+00   7.551204204559e+00   8.475174903870e+00   9.047454833984e+00   8.669146537781e+00   7.744735717773e+00   7.063188552856e+00 
  6.968087673187e+00   7.106556415558e+00   7.068169593811e+00   6.874188899994e+00   6.675917148590e+00   6.550228595734e+00   6.388968944550e+00   6.318213462830e+00   6.288905143738e+00 
  6.396137237549e+00   6.524326324463e+00   0.000000000000e+00   0.000000000000e+00   8.027665138245e+00   9.155916213989e+00   1.115443992615e+01   1.193530273438e+01   1.061614799500e+01 
  9.025557518005e+00   8.132522583008e+00   7.872695446014e+00   7.951729297638e+00   7.930937767029e+00   7.614434719086e+00   7.131936550140e+00   6.490070819855e+00   6.234573364258e+00 
  6.234134674072e+00   6.428175926208e+00   6.764647483826e+00   6.990689277649e+00   0.000000000000e+00   0.000000000000e+00   8.438902854919e+00   9.348320960999e+00   1.073943233490e+01 
  1.148789882660e+01   1.093308353424e+01   9.924495697021e+00   8.870152473450e+00   8.282718658447e+00   8.493390083313e+00   8.834959983826e+00   8.464369773865e+00   7.459762573242e+00 
  6.372550964355e+00   6.386714935303e+00   6.423790931702e+00   6.596234321594e+00   7.479850769043e+00   7.842299938202e+00   0.000000000000e+00   0.000000000000e+00   9.149278640747e+00 
  9.907838821411e+00   1.127757930756e+01   1.265139675140e+01   1.279572391510e+01   1.174988079071e+01   9.692447662354e+00   8.723359107971e+00   9.631340026855e+00   1.075314426422e+01 
  1.051565361023e+01   8.196300506592e+00   5.931763648987e+00   6.299193859100e+00   6.086871147156e+00   5.869138240814e+00   9.456449508667e+00   9.095991134644e+00   0.000000000000e+00 
  0.000000000000e+00   9.733443260193e+00   1.056813049316e+01   1.259534263611e+01   1.511713123322e+01   1.575850963593e+01   1.429218006134e+01   1.082916355133e+01   9.158820152283e+00 
  1.159836959839e+01   1.408590126038e+01   1.415171337128e+01   9.192986488342e+00   5.709802150726e+00   5.634424686432e+00   5.223023891449e+00   6.564612865448e+00   1.262382507324e+01 
  1.166978359222e+01   0.000000000000e+00   0.000000000000e+00   9.954147338867e+00   1.029608821869e+01   1.120964717865e+01   1.252657508850e+01   1.273635673523e+01   1.182092094421e+01 
  9.875602722168e+00   8.874691963196e+00   9.753835678101e+00   1.095405864716e+01   1.085681533813e+01   8.719252586365e+00   6.591928005219e+00   6.737175941467e+00   6.476955413818e+00 
  6.270358562469e+00   9.838366508484e+00   9.160563468933e+00   0.000000000000e+00   0.000000000000e+00   9.885562896729e+00   1.015561485291e+01   1.062575626373e+01   1.098874473572e+01 
  1.096147251129e+01   1.047841262817e+01   9.640604972839e+00   9.074128150940e+00   9.206298828125e+00   9.454276084900e+00   9.236394882202e+00   8.401279449463e+00   7.533854007721e+00 
  7.301822662354e+00   7.241154670715e+00   7.440148830414e+00   8.369675636292e+00   8.419245719910e+00   0.000000000000e+00   0.000000000000e+00   1.020121479034e+01   1.021481132507e+01 
  1.033959960938e+01   1.049814414978e+01   1.049179553986e+01   1.025642013550e+01   9.885801315308e+00   9.591021537781e+00   9.467663764954e+00   9.404482841492e+00   9.120347023010e+00 
  8.654531478882e+00   8.142067909241e+00   7.833745956421e+00   7.710417270660e+00   7.805546283722e+00   8.144799232483e+00   8.304360389709e+00   0.000000000000e+00   0.000000000000e+00 
  9.519807815552e+00   9.679582595825e+00   9.812550544739e+00   9.757907867432e+00   9.542630195618e+00   9.203946113586e+00   8.813126564026e+00   8.488969802856e+00   8.329010009766e+00 
  8.195605278015e+00   8.050614356995e+00   7.759346485138e+00   7.529131889343e+00   7.427765846252e+00   7.455738067627e+00   7.546418190002e+00   7.606180667877e+00   7.665220737457e+00 
  0.000000000000e+00   0.000000000000e+00   0.000000000000e+00   0.000000000000e+00   0.000000000000e+00   0.000000000000e+00   0.000000000000e+00   0.000000000000e+00   0.000000000000e+00 
  0.000000000000e+00   0.000000000000e+00   0.000000000000e+00   0.000000000000e+00   0.000000000000e+00   0.000000000000e+00   0.000000000000e+00   0.000000000000e+00   0.000000000000e+00 
  0.000000000000e+00   0.000000000000e+00   0.000000000000e+00   0.000000000000e+00   0.000000000000e+00   0.000000000000e+00   0.000000000000e+00   0.000000000000e+00   0.000000000000e+00 
  0.000000000000e+00   0.000000000000e+00   0.000000000000e+00   0.000000000000e+00   0.000000000000e+00   0.000000000000e+00   0.000000000000e+00   0.000000000000e+00   0.000000000000e+00 
  0.000000000000e+00   0.000000000000e+00   0.000000000000e+00   0.000000000000e+00   0.000000000000e+00   0.000000000000e+00   1.875927329063e+00   2.049691438675e+00   1.941220283508e+00 
  1.881377458572e+00   1.850182890892e+00   1.803231239319e+00   1.831930637360e+00   2.065274477005e+00   2.146292209625e+00   2.168528556824e+00   2.258565187454e+00   2.417628049850e+00 
  2.331771850586e+00   2.706618070602e+00   2.693044662476e+00   2.366554260254e+00   2.260253190994e+00   2.339765787125e+00   0.000000000000e+00   0.000000000000e+00   1.956667065620e+00 
  1.904550433159e+00   1.825777649879e+00   1.832902669907e+00   1.824321746826e+00   1.837993979454e+00   1.774486303329e+00   1.906228899956e+00   2.103023290634e+00   2.149656534195e+00 
  2.216715574265e+00   2.337629079819e+00   2.387521266937e+00   2.546992301941e+00   2.571376800537e+00   2.503649711609e+00   2.433148622513e+00   2.519577741623e+00   0.000000000000e+00 
  0.000000000000e+00   1.769970297813e+00   1.769366979599e+00   1.803052902222e+00   1.787180066109e+00   1.779285788536e+00   1.806605339050e+00   1.678568124771e+00   1.594700813293e+00 
  1.732398152351e+00   2.065865039825e+00   2.262521505356e+00   2.393249034882e+00   2.469347000122e+00   2.609999418259e+00   2.609208345413e+00   2.582200288773e+00   2.580305576324e+00 
  2.751169443130e+00   0.000000000000e+00   0.000000000000e+00   1.811895608902e+00   1.822572112083e+00   1.727111935616e+00   1.653487563133e+00   1.744146466255e+00   1.919080018997e+00 
  1.849304676056e+00   1.660301804543e+00   1.722934007645e+00   2.114604234695e+00   2.319010019302e+00   2.490367174149e+00   2.569465398788e+00   2.657792568207e+00   2.734722852707e+00 
  2.784379243851e+00   2.772575378418e+00   2.855942964554e+00   0.000000000000e+00   0.000000000000e+00   1.689895510674e+00   1.824324488640e+00   1.889604926109e+00   1.555095195770e+00 
  1.884003758430e+00   2.557105064392e+00   2.409089565277e+00   1.799354910851e+00   1.909271717072e+00   2.153454065323e+00   2.536399602890e+00   2.668745994568e+00   2.848039388657e+00 
  2.926117420197e+00   3.004378080368e+00   3.035712003708e+00   3.040731191635e+00   3.153074979782e+00   0.000000000000e+00   0.000000000000e+00   1.904526472092e+00   2.223502159119e+00 
  2.339285373688e+00   3.556448221207e+00   2.277350187302e+00   2.255173921585e+00   2.080404281616e+00   2.095231771469e+00   2.203248739243e+00   2.394550323486e+00   2.923197269440e+00 
  3.013520479202e+00   3.371642827988e+00   3.434312582016e+00   3.478829145432e+00   3.481978893280e+00   3.515945196152e+00   3.720967769623e+00   0.000000000000e+00   0.000000000000e+00 