# vtk DataFile Version 2.0
Written using VisIt writer
ASCII
DATASET RECTILINEAR_GRID
DIMENSIONS 20 20 20
X_COORDINATES 20 float
  0.000000000000e+00   1.000000000000e+00   2.000000000000e+00   3.000000000000e+00   4.000000000000e+00   5.000000000000e+00   6.000000000000e+00   7.000000000000e+00   8.000000000000e+00 
  9.000000000000e+00   1.000000000000e+01   1.100000000000e+01   1.200000000000e+01   1.300000000000e+01   1.400000000000e+01   1.500000000000e+01   1.600000000000e+01   1.700000000000e+01 
  1.800000000000e+01   1.900000000000e+01 
Y_COORDINATES 20 float
  0.000000000000e+00   1.000000000000e+00   2.000000000000e+00   3.000000000000e+00   4.000000000000e+00   5.000000000000e+00   6.000000000000e+00   7.000000000000e+00   8.000000000000e+00 
  9.000000000000e+00   1.000000000000e+01   1.100000000000e+01   1.200000000000e+01   1.300000000000e+01   1.400000000000e+01   1.500000000000e+01   1.600000000000e+01   1.700000000000e+01 
  1.800000000000e+01   1.900000000000e+01 
Z_COORDINATES 20 float
  0.000000000000e+00   1.000000000000e+00   2.000000000000e+00   3.000000000000e+00   4.000000000000e+00   5.000000000000e+00   6.000000000000e+00   7.000000000000e+00   8.000000000000e+00 
  9.000000000000e+00   1.000000000000e+01   1.100000000000e+01   1.200000000000e+01   1.300000000000e+01   1.400000000000e+01   1.500000000000e+01   1.600000000000e+01   1.700000000000e+01 
  1.800000000000e+01   1.900000000000e+01 
CELL_DATA 6859
POINT_DATA 8000
SCALARS pressure float
LOOKUP_TABLE default
  0.000000000000e+00   0.000000000000e+00   0.000000000000e+00   0.000000000000e+00   0.000000000000e+00   0.000000000000e+00   0.000000000000e+00   0.000000000000e+00   0.000000000000e+00 
  0.000000000000e+00   0.000000000000e+00   0.000000000000e+00   0.000000000000e+00   0.000000000000e+00   0.000000000000e+00   0.000000000000e+00   0.000000000000e+00   0.000000000000e+00 
  0.000000000000e+00   0.000000000000e+00   0.000000000000e+00   0.000000000000e+00   0.000000000000e+00   0.000000000000e+00   0.000000000000e+00   0.000000000000e+00   0.000000000000e+00 
  0.000000000000e+00   0.000000000000e+00   0.000000000000e+00   0.000000000000e+00   0.000000000000e+00   0.000000000000e+00   0.000000000000e+00   0.000000000000e+00   0.000000000000e+00 
  0.000000000000e+00   0.000000000000e+00   0.000000000000e+00   0.000000000000e+00   0.000000000000e+00   0.000000000000e+00   0.000000000000e+00   0.000000000000e+00   0.000000000000e+00 
  0.000000000000e+00   0.000000000000e+00   0.000000000000e+00   0.000000000000e+00   0.000000000000e+00   0.000000000000e+00   0.000000000000e+00   0.000000000000e+00   0.000000000000e+00 
  0.000000000000e+00   0.000000000000e+00   0.000000000000e+00   0.000000000000e+00   0.000000000000e+00   0.000000000000e+00   0.000000000000e+00   0.000000000000e+00   0.000000000000e+00 
  0.000000000000e+00   0.000000000000e+00   0.000000000000e+00   0.000000000000e+00   0.000000000000e+00   0.000000000000e+00   0.000000000000e+00   0.000000000000e+00   0.000000000000e+00 
  0.000000000000e+00   0.000000000000e+00   0.000000000000e+00   0.000000000000e+00   0.000000000000e+00   0.000000000000e+00   0.000000000000e+00   0.000000000000e+00   0.000000000000e+00 
  0.000000000000e+00   0.000000000000e+00   0.000000000000e+00   0.000000000000e+00   0.000000000000e+00   0.000000000000e+00   0.000000000000e+00   0.000000000000e+00   0.000000000000e+00 
  0.000000000000e+00   0.000000000000e+00   0.000000000000e+00   0.000000000000e+00   0.000000000000e+00   0.000000000000e+00   0.000000000000e+00   0.000000000000e+00   0.000000000000e+00 
  0.000000000000e+00   0.000000000000e+00   0.000000000000e+00   0.000000000000e+00   0.000000000000e+00   0.000000000000e+00   0.000000000000e+00   0.000000000000e+00   0.000000000000e+00 
  0.000000000000e+00   0.000000000000e+00   0.000000000000e+00   0.000000000000e+00   0.000000000000e+00   0.000000000000e+00   0.000000000000e+00   0.000000000000e+00   0.000000000000e+00 
  0.000000000000e+00   0.000000000000e+00   0.000000000000e+00   0.000000000000e+00   0.000000000000e+00   0.000000000000e+00   0.000000000000e+00   0.000000000000e+00   0.000000000000e+00 
  0.000000000000e+00   0.000000000000e+00   0.000000000000e+00   0.000000000000e+00   0.000000000000e+00   0.000000000000e+00   0.000000000000e+00   0.000000000000e+00   0.000000000000e+00 
  0.000000000000e+00   0.000000000000e+00   0.000000000000e+00   0.000000000000e+00   0.000000000000e+00   0.000000000000e+00   0.000000000000e+00   0.000000000000e+00   0.000000000000e+00 
  0.000000000000e+00   0.000000000000e+00   0.000000000000e+00   0.000000000000e+00   0.000000000000e+00   0.000000000000e+00   0.000000000000e+00   0.000000000000e+00   0.000000000000e+00 
  0.000000000000e+00   0.000000000000e+00   0.000000000000e+00   0.000000000000e+00   0.000000000000e+00   0.000000000000e+00   0.000000000000e+00   0.000000000000e+00   0.000000000000e+00 
  0.000000000000e+00   0.000000000000e+00   0.000000000000e+00   0.000000000000e+00   0.000000000000e+00   0.000000000000e+00   0.000000000000e+00   0.000000000000e+00   0.000000000000e+00 
  0.000000000000e+00   0.000000000000e+00   0.000000000000e+00   0.000000000000e+00   0.000000000000e+00   0.000000000000e+00   0.000000000000e+00   0.000000000000e+00   0.000000000000e+00 
  0.000000000000e+00   0.000000000000e+00   0.000000000000e+00   0.000000000000e+00   0.000000000000e+00   0.000000000000e+00   0.000000000000e+00   0.000000000000e+00   0.000000000000e+00 
  0.000000000000e+00   0.000000000000e+00   0.000000000000e+00   0.000000000000e+00   0.000000000000e+00   0.000000000000e+00   0.000000000000e+00   0.000000000000e+00   0.000000000000e+00 
  0.000000000000e+00   0.000000000000e+00   0.000000000000e+00   0.000000000000e+00   0.000000000000e+00   0.000000000000e+00   0.000000000000e+00   0.000000000000e+00   0.000000000000e+00 
  0.000000000000e+00   0.000000000000e+00   0.000000000000e+00   0.000000000000e+00   0.000000000000e+00   0.000000000000e+00   0.000000000000e+00   0.000000000000e+00   0.000000000000e+00 
  0.000000000000e+00   0.000000000000e+00   0.000000000000e+00   0.000000000000e+00   0.000000000000e+00   0.000000000000e+00   0.000000000000e+00   0.000000000000e+00   0.000000000000e+00 
  0.000000000000e+00   0.000000000000e+00   0.000000000000e+00   0.000000000000e+00   0.000000000000e+00   0.000000000000e+00   0.000000000000e+00   0.000000000000e+00   0.000000000000e+00 
  0.000000000000e+00   0.000000000000e+00   0.000000000000e+00   0.000000000000e+00   0.000000000000e+00   0.000000000000e+00   0.000000000000e+00   0.000000000000e+00   0.000000000000e+00 
  0.000000000000e+00   0.000000000000e+00   0.000000000000e+00   0.000000000000e+00   0.000000000000e+00   0.000000000000e+00   0.000000000000e+00   0.000000000000e+00   0.000000000000e+00 
  0.000000000000e+00   0.000000000000e+00   0.000000000000e+00   0.000000000000e+00   0.000000000000e+00   0.000000000000e+00   0.000000000000e+00   0.000000000000e+00   0.000000000000e+00 
  0.000000000000e+00   0.000000000000e+00   0.000000000000e+00   0.000000000000e+00   0.000000000000e+00   0.000000000000e+00   0.000000000000e+00   0.000000000000e+00   0.000000000000e+00 
  0.000000000000e+00   0.000000000000e+00   0.000000000000e+00   0.000000000000e+00   0.000000000000e+00   0.000000000000e+00   0.000000000000e+00   0.000000000000e+00   0.000000000000e+00 
  0.000000000000e+00   0.000000000000e+00   0.000000000000e+00   0.000000000000e+00   0.000000000000e+00   0.000000000000e+00   0.000000000000e+00   0.000000000000e+00   0.000000000000e+00 
  0.000000000000e+00   0.000000000000e+00   0.000000000000e+00   0.000000000000e+00   0.000000000000e+00   0.000000000000e+00   0.000000000000e+00   0.000000000000e+00   0.000000000000e+00 
  0.000000000000e+00   0.000000000000e+00   0.000000000000e+00   0.000000000000e+00   0.000000000000e+00   0.000000000000e+00   0.000000000000e+00   0.000000000000e+00   0.000000000000e+00 
  0.000000000000e+00   0.000000000000e+00   0.000000000000e+00   0.000000000000e+00   0.000000000000e+00   0.000000000000e+00   0.000000000000e+00   0.000000000000e+00   0.000000000000e+00 
  0.000000000000e+00   0.000000000000e+00   0.000000000000e+00   0.000000000000e+00   0.000000000000e+00   0.000000000000e+00   0.000000000000e+00   0.000000000000e+00   0.000000000000e+00 
  0.000000000000e+00   0.000000000000e+00   0.000000000000e+00   0.000000000000e+00   0.000000000000e+00   0.000000000000e+00   0.000000000000e+00   0.000000000000e+00   0.000000000000e+00 
  0.000000000000e+00   0.000000000000e+00   0.000000000000e+00   0.000000000000e+00   0.000000000000e+00   0.000000000000e+00   0.000000000000e+00   0.000000000000e+00   0.000000000000e+00 
  0.000000000000e+00   0.000000000000e+00   0.000000000000e+00   0.000000000000e+00   0.000000000000e+00   0.000000000000e+00   0.000000000000e+00   0.000000000000e+00   0.000000000000e+00 
  0.000000000000e+00   0.000000000000e+00   0.000000000000e+00   0.000000000000e+00   0.000000000000e+00   0.000000000000e+00   0.000000000000e+00   0.000000000000e+00   0.000000000000e+00 
  0.000000000000e+00   0.000000000000e+00   0.000000000000e+00   0.000000000000e+00   0.000000000000e+00   0.000000000000e+00   0.000000000000e+00   0.000000000000e+00   0.000000000000e+00 
  0.000000000000e+00   0.000000000000e+00   0.000000000000e+00   0.000000000000e+00   0.000000000000e+00   0.000000000000e+00   0.000000000000e+00   0.000000000000e+00   0.000000000000e+00 
  0.000000000000e+00   0.000000000000e+00   0.000000000000e+00   0.000000000000e+00   0.000000000000e+00   0.000000000000e+00   0.000000000000e+00   0.000000000000e+00   0.000000000000e+00 
  0.000000000000e+00   0.000000000000e+00   0.000000000000e+00   0.000000000000e+00   0.000000000000e+00   0.000000000000e+00   0.000000000000e+00   0.000000000000e+00   0.000000000000e+00 
  0.000000000000e+00   0.000000000000e+00   0.000000000000e+00   0.000000000000e+00   0.000000000000e+00   0.000000000000e+00   0.000000000000e+00   0.000000000000e+00   0.000000000000e+00 
  0.000000000000e+00   0.000000000000e+00   0.000000000000e+00   0.000000000000e+00   0.000000000000e+00   0.000000000000e+00   0.000000000000e+00   0.000000000000e+00   0.000000000000e+00 
  0.000000000000e+00   0.000000000000e+00   0.000000000000e+00   0.000000000000e+00   0.000000000000e+00   0.000000000000e+00   0.000000000000e+00   6.483109951019e+00   6.483083248138e+00 
  6.483034133911e+00   6.482968807220e+00   6.482894897461e+00   6.482819080353e+00   6.482747077942e+00   6.482681274414e+00   6.482624053955e+00   6.482575416565e+00   6.482534885406e+00 
  6.482501983643e+00   6.482475757599e+00   6.482454776764e+00   6.482439517975e+00   6.482428550720e+00   6.482421398163e+00   6.482418060303e+00   0.000000000000e+00   0.000000000000e+00 
  6.383179187775e+00   6.383146286011e+00   6.383086204529e+00   6.383007526398e+00   6.382920742035e+00   6.382833957672e+00   6.382753849030e+00   6.382682800293e+00   6.382621765137e+00 
  6.382570743561e+00   6.382529258728e+00   6.382495880127e+00   6.382469654083e+00   6.382449150085e+00   6.382433891296e+00   6.382422924042e+00   6.382415771484e+00   6.382412433624e+00 
  0.000000000000e+00   0.000000000000e+00   6.180551052094e+00   6.180502414703e+00   6.180414676666e+00   6.180304527283e+00   6.180188179016e+00   6.180077552795e+00   6.179980278015e+00 
  6.179897308350e+00   6.179829597473e+00   6.179774761200e+00   6.179731369019e+00   6.179697036743e+00   6.179670810699e+00   6.179650306702e+00   6.179635524750e+00   6.179624557495e+00 
  6.179617881775e+00   6.179614543915e+00   0.000000000000e+00   0.000000000000e+00   5.868737220764e+00   5.868655204773e+00   5.868510723114e+00   5.868337631226e+00   5.868165969849e+00 
  5.868013858795e+00   5.867887496948e+00   5.867787361145e+00   5.867709636688e+00   5.867650032043e+00   5.867604255676e+00   5.867569446564e+00   5.867542743683e+00   5.867523193359e+00 
  5.867508411407e+00   5.867498397827e+00   5.867491722107e+00   5.867488861084e+00   0.000000000000e+00   0.000000000000e+00   5.436897754669e+00   5.436743259430e+00   5.436480045319e+00 
  5.436183929443e+00   5.435913085938e+00   5.435692787170e+00   5.435525417328e+00   5.435402393341e+00   5.435312747955e+00   5.435247898102e+00   5.435200214386e+00   5.435165405273e+00 
  5.435139656067e+00   5.435121059418e+00   5.435107231140e+00   5.435098171234e+00   5.435091972351e+00   5.435089111328e+00   0.000000000000e+00   0.000000000000e+00   4.867848396301e+00 
  4.867527961731e+00   4.866998672485e+00   4.866452693939e+00   4.866006851196e+00   4.865683555603e+00   4.865462303162e+00   4.865313529968e+00   4.865213394165e+00   4.865145206451e+00 
  4.865097999573e+00   4.865064620972e+00   4.865040779114e+00   4.865023612976e+00   4.865011692047e+00   4.865003108978e+00   4.864998340607e+00   4.864995956421e+00   0.000000000000e+00 
  0.000000000000e+00   4.134029388428e+00   4.133295059204e+00   4.132107257843e+00   4.131031513214e+00   4.130285263062e+00   4.129821300507e+00   4.129541873932e+00   4.129373550415e+00 
  4.129269599915e+00   4.129203796387e+00   4.129160404205e+00   4.129130840302e+00   4.129110336304e+00   4.129096508026e+00   4.129086494446e+00   4.129079818726e+00   4.129075527191e+00 
  4.129073619843e+00   0.000000000000e+00   0.000000000000e+00   3.185295820236e+00   3.183425903320e+00   3.180391073227e+00   3.178145647049e+00   3.176941633224e+00   3.176336050034e+00 
  3.176027297974e+00   3.175862789154e+00   3.175770282745e+00   3.175715446472e+00   3.175681114197e+00   3.175658702850e+00   3.175643682480e+00   3.175633192062e+00   3.175626277924e+00 
  3.175621509552e+00   3.175618410110e+00   3.175617218018e+00   0.000000000000e+00   0.000000000000e+00   1.967840671539e+00   1.960431575775e+00   1.950210809708e+00   1.945233702660e+00 
  1.943641066551e+00   1.943058848381e+00   1.942817687988e+00   1.942705631256e+00   1.942648053169e+00   1.942615866661e+00   1.942596673965e+00   1.942584395409e+00   1.942576289177e+00 
  1.942570805550e+00   1.942567110062e+00   1.942564606667e+00   1.942563056946e+00   1.942562460899e+00   0.000000000000e+00   0.000000000000e+00   0.000000000000e+00   0.000000000000e+00 
  0.000000000000e+00   0.000000000000e+00   0.000000000000e+00   0.000000000000e+00   0.000000000000e+00   0.000000000000e+00   0.000000000000e+00   0.000000000000e+00   0.000000000000e+00 
  0.000000000000e+00   0.000000000000e+00   0.000000000000e+00   0.000000000000e+00   0.000000000000e+00   0.000000000000e+00   0.000000000000e+00   0.000000000000e+00   0.000000000000e+00 
  0.000000000000e+00   0.000000000000e+00   0.000000000000e+00   0.000000000000e+00   0.000000000000e+00   0.000000000000e+00   0.000000000000e+00   0.000000000000e+00   0.000000000000e+00 
  0.000000000000e+00   0.000000000000e+00   0.000000000000e+00   0.000000000000e+00   0.000000000000e+00   0.000000000000e+00   0.000000000000e+00   0.000000000000e+00   0.000000000000e+00 
  0.000000000000e+00   0.000000000000e+00   0.000000000000e+00   0.000000000000e+00   0.000000000000e+00   0.000000000000e+00   0.000000000000e+00   0.000000000000e+00   0.000000000000e+00 
  0.000000000000e+00   0.000000000000e+00   0.000000000000e+00   0.000000000000e+00   0.000000000000e+00   0.000000000000e+00   0.000000000000e+00   0.000000000000e+00   0.000000000000e+00 
  0.000000000000e+00   0.000000000000e+00   0.000000000000e+00   0.000000000000e+00   0.000000000000e+00   0.000000000000e+00   0.000000000000e+00   0.000000000000e+00   0.000000000000e+00 
  0.000000000000e+00   0.000000000000e+00   0.000000000000e+00   0.000000000000e+00   0.000000000000e+00   0.000000000000e+00   0.000000000000e+00   0.000000000000e+00   0.000000000000e+00 
  0.000000000000e+00   0.000000000000e+00   0.000000000000e+00   0.000000000000e+00   0.000000000000e+00   0.000000000000e+00   0.000000000000e+00   0.000000000000e+00   0.000000000000e+00 
  0.000000000000e+00   0.000000000000e+00   0.000000000000e+00   0.000000000000e+00   0.000000000000e+00   0.000000000000e+00   0.000000000000e+00   0.000000000000e+00   0.000000000000e+00 
  0.000000000000e+00   0.000000000000e+00   0.000000000000e+00   0.000000000000e+00   0.000000000000e+00   0.000000000000e+00   0.000000000000e+00   0.000000000000e+00   0.000000000000e+00 
  0.000000000000e+00   0.000000000000e+00   0.000000000000e+00   0.000000000000e+00   0.000000000000e+00   0.000000000000e+00   0.000000000000e+00   0.000000000000e+00   0.000000000000e+00 
  0.000000000000e+00   0.000000000000e+00   0.000000000000e+00   0.000000000000e+00   0.000000000000e+00   0.000000000000e+00   0.000000000000e+00   0.000000000000e+00   0.000000000000e+00 
  0.000000000000e+00   0.000000000000e+00   0.000000000000e+00   0.000000000000e+00   0.000000000000e+00   0.000000000000e+00   0.000000000000e+00   0.000000000000e+00   0.000000000000e+00 
  0.000000000000e+00   0.000000000000e+00   0.000000000000e+00   0.000000000000e+00   0.000000000000e+00   0.000000000000e+00   0.000000000000e+00   0.000000000000e+00   0.000000000000e+00 
  0.000000000000e+00   0.000000000000e+00   0.000000000000e+00   0.000000000000e+00   0.000000000000e+00   0.000000000000e+00   0.000000000000e+00   0.000000000000e+00   0.000000000000e+00 
  0.000000000000e+00   0.000000000000e+00   0.000000000000e+00   0.000000000000e+00   0.000000000000e+00   0.000000000000e+00   0.000000000000e+00   0.000000000000e+00   0.000000000000e+00 
  0.000000000000e+00   0.000000000000e+00   0.000000000000e+00   0.000000000000e+00   0.000000000000e+00   0.000000000000e+00   0.000000000000e+00   0.000000000000e+00   0.000000000000e+00 
  0.000000000000e+00   0.000000000000e+00   0.000000000000e+00   0.000000000000e+00   0.000000000000e+00   0.000000000000e+00   0.000000000000e+00   0.000000000000e+00   0.000000000000e+00 
  0.000000000000e+00   0.000000000000e+00   0.000000000000e+00   0.000000000000e+00   0.000000000000e+00   0.000000000000e+00   0.000000000000e+00   0.000000000000e+00   0.000000000000e+00 
  0.000000000000e+00   0.000000000000e+00   0.000000000000e+00   0.000000000000e+00   0.000000000000e+00   0.000000000000e+00   0.000000000000e+00   0.000000000000e+00   0.000000000000e+00 
  0.000000000000e+00   0.000000000000e+00   0.000000000000e+00   0.000000000000e+00   0.000000000000e+00   0.000000000000e+00   0.000000000000e+00   0.000000000000e+00   0.000000000000e+00 
  0.000000000000e+00   0.000000000000e+00   0.000000000000e+00   0.000000000000e+00   0.000000000000e+00   0.000000000000e+00   0.000000000000e+00   0.000000000000e+00   0.000000000000e+00 
  0.000000000000e+00   0.000000000000e+00   0.000000000000e+00   0.000000000000e+00   0.000000000000e+00   0.000000000000e+00   0.000000000000e+00   0.000000000000e+00   0.000000000000e+00 
  0.000000000000e+00   0.000000000000e+00   5.580784797668e+00   5.580760955811e+00   5.580716133118e+00   5.580656528473e+00   5.580588817596e+00   5.580518722534e+00   5.580451011658e+00 
  5.580389499664e+00   5.580335140228e+00   5.580288887024e+00   5.580250263214e+00   5.580218791962e+00   5.580193519592e+00   5.580173492432e+00   5.580158710480e+00   5.580147743225e+00 
  5.580141067505e+00   5.580137729645e+00   0.000000000000e+00   0.000000000000e+00   5.483753204346e+00   5.483724117279e+00   5.483670711517e+00   5.483600139618e+00   5.483521461487e+00 
  5.483442306519e+00   5.483367919922e+00   5.483301639557e+00   5.483243942261e+00   5.483195781708e+00   5.483156204224e+00   5.483124256134e+00   5.483098983765e+00   5.483079433441e+00 
  5.483064174652e+00   5.483053684235e+00   5.483047008514e+00   5.483043670654e+00   0.000000000000e+00   0.000000000000e+00   5.287263870239e+00   5.287222385406e+00   5.287147521973e+00 
  5.287052154541e+00   5.286949157715e+00   5.286849975586e+00   5.286761283875e+00   5.286684989929e+00   5.286621570587e+00   5.286570072174e+00   5.286529064178e+00   5.286496162415e+00 
  5.286470890045e+00   5.286451339722e+00   5.286436557770e+00   5.286426544189e+00   5.286419868469e+00   5.286416530609e+00   0.000000000000e+00   0.000000000000e+00   4.985706329346e+00 
  4.985641002655e+00   4.985525131226e+00   4.985381603241e+00   4.985235214233e+00   4.985102176666e+00   4.984989643097e+00   4.984898567200e+00   4.984826564789e+00   4.984770774841e+00 
  4.984727382660e+00   4.984694480896e+00   4.984669208527e+00   4.984650135040e+00   4.984636306763e+00   4.984626293182e+00   4.984620094299e+00   4.984617233276e+00   0.000000000000e+00 
  0.000000000000e+00   4.569971084595e+00   4.569860935211e+00   4.569667339325e+00   4.569437503815e+00   4.569216728210e+00   4.569029808044e+00   4.568883895874e+00   4.568773269653e+00 
  4.568691730499e+00   4.568631649017e+00   4.568587303162e+00   4.568554401398e+00   4.568530082703e+00   4.568511962891e+00   4.568498611450e+00   4.568489551544e+00   4.568483829498e+00 
  4.568481445312e+00   0.000000000000e+00   0.000000000000e+00   4.026348590851e+00   4.026154994965e+00   4.025818824768e+00   4.025432586670e+00   4.025087833405e+00   4.024822711945e+00 
  4.024633884430e+00   4.024502754211e+00   4.024413108826e+00   4.024350643158e+00   4.024306297302e+00   4.024275302887e+00   4.024252414703e+00   4.024236202240e+00   4.024224758148e+00 
  4.024216651917e+00   4.024211883545e+00   4.024209499359e+00   0.000000000000e+00   0.000000000000e+00   3.334874868393e+00   3.334537982941e+00   3.333950519562e+00   3.333284616470e+00 
  3.332741975784e+00   3.332373857498e+00   3.332140684128e+00   3.331995010376e+00   3.331902742386e+00   3.331842660904e+00   3.331802606583e+00   3.331774950027e+00   3.331755876541e+00 
  3.331742286682e+00   3.331732749939e+00   3.331726312637e+00   3.331722259521e+00   3.331720352173e+00   0.000000000000e+00   0.000000000000e+00   2.465234518051e+00   2.464721441269e+00 
  2.463791131973e+00   2.462647676468e+00   2.461815118790e+00   2.461345672607e+00   2.461091518402e+00   2.460950851440e+00   2.460869312286e+00   2.460819959641e+00   2.460788249969e+00 
  2.460767507553e+00   2.460753202438e+00   2.460743427277e+00   2.460736513138e+00   2.460731983185e+00   2.460729122162e+00   2.460727930069e+00   0.000000000000e+00   0.000000000000e+00 
  1.404399275780e+00   1.404026865959e+00   1.403302073479e+00   1.401478648186e+00   1.400320172310e+00   1.399860858917e+00   1.399661898613e+00   1.399566411972e+00   1.399515867233e+00 
  1.399487018585e+00   1.399469256401e+00   1.399457931519e+00   1.399450302124e+00   1.399445056915e+00   1.399441480637e+00   1.399439096451e+00   1.399437665939e+00   1.399436950684e+00 
  0.000000000000e+00   0.000000000000e+00   0.000000000000e+00   0.000000000000e+00   0.000000000000e+00   0.000000000000e+00   0.000000000000e+00   0.000000000000e+00   0.000000000000e+00 
  0.000000000000e+00   0.000000000000e+00   0.000000000000e+00   0.000000000000e+00   0.000000000000e+00   0.000000000000e+00   0.000000000000e+00   0.000000000000e+00   0.000000000000e+00 
  0.000000000000e+00   0.000000000000e+00   0.000000000000e+00   0.000000000000e+00   0.000000000000e+00   0.000000000000e+00   0.000000000000e+00   0.000000000000e+00   0.000000000000e+00 
  0.000000000000e+00   0.000000000000e+00   0.000000000000e+00   0.000000000000e+00   0.000000000000e+00   0.000000000000e+00   0.000000000000e+00   0.000000000000e+00   0.000000000000e+00 
  0.000000000000e+00   0.000000000000e+00   0.000000000000e+00   0.000000000000e+00   0.000000000000e+00   0.000000000000e+00   0.000000000000e+00   0.000000000000e+00   0.000000000000e+00 
  0.000000000000e+00   0.000000000000e+00   0.000000000000e+00   0.000000000000e+00   0.000000000000e+00   0.000000000000e+00   0.000000000000e+00   0.000000000000e+00   0.000000000000e+00 
  0.000000000000e+00   0.000000000000e+00   0.000000000000e+00   0.000000000000e+00   0.000000000000e+00   0.000000000000e+00   0.000000000000e+00   0.000000000000e+00   0.000000000000e+00 
  0.000000000000e+00   0.000000000000e+00   0.000000000000e+00   0.000000000000e+00   0.000000000000e+00   0.000000000000e+00   0.000000000000e+00   0.000000000000e+00   0.000000000000e+00 
  0.000000000000e+00   0.000000000000e+00   0.000000000000e+00   0.000000000000e+00   0.000000000000e+00   0.000000000000e+00   0.000000000000e+00   0.000000000000e+00   0.000000000000e+00 
  0.000000000000e+00   0.000000000000e+00   0.000000000000e+00   0.000000000000e+00   0.000000000000e+00   0.000000000000e+00   0.000000000000e+00   0.000000000000e+00   0.000000000000e+00 
  0.000000000000e+00   0.000000000000e+00   0.000000000000e+00   0.000000000000e+00   0.000000000000e+00   0.000000000000e+00   0.000000000000e+00   0.000000000000e+00   0.000000000000e+00 
  0.000000000000e+00   0.000000000000e+00   0.000000000000e+00   0.000000000000e+00   0.000000000000e+00   0.000000000000e+00   0.000000000000e+00   0.000000000000e+00   0.000000000000e+00 
  0.000000000000e+00   0.000000000000e+00   0.000000000000e+00   0.000000000000e+00   0.000000000000e+00   0.000000000000e+00   0.000000000000e+00   0.000000000000e+00   0.000000000000e+00 
  0.000000000000e+00   0.000000000000e+00   0.000000000000e+00   0.000000000000e+00   0.000000000000e+00   0.000000000000e+00   0.000000000000e+00   0.000000000000e+00   0.000000000000e+00 
  0.000000000000e+00   0.000000000000e+00   0.000000000000e+00   0.000000000000e+00   0.000000000000e+00   0.000000000000e+00   0.000000000000e+00   0.000000000000e+00   0.000000000000e+00 
  0.000000000000e+00   0.000000000000e+00   0.000000000000e+00   0.000000000000e+00   0.000000000000e+00   0.000000000000e+00   0.000000000000e+00   0.000000000000e+00   0.000000000000e+00 
  0.000000000000e+00   0.000000000000e+00   0.000000000000e+00   0.000000000000e+00   0.000000000000e+00   0.000000000000e+00   0.000000000000e+00   0.000000000000e+00   0.000000000000e+00 
  0.000000000000e+00   0.000000000000e+00   0.000000000000e+00   0.000000000000e+00   0.000000000000e+00   0.000000000000e+00   0.000000000000e+00   0.000000000000e+00   0.000000000000e+00 
  0.000000000000e+00   0.000000000000e+00   0.000000000000e+00   0.000000000000e+00   0.000000000000e+00   0.000000000000e+00   0.000000000000e+00   0.000000000000e+00   0.000000000000e+00 
  0.000000000000e+00   0.000000000000e+00   0.000000000000e+00   0.000000000000e+00   0.000000000000e+00   0.000000000000e+00   0.000000000000e+00   0.000000000000e+00   0.000000000000e+00 
  0.000000000000e+00   0.000000000000e+00   0.000000000000e+00   0.000000000000e+00   0.000000000000e+00   0.000000000000e+00   0.000000000000e+00   0.000000000000e+00   0.000000000000e+00 
  0.000000000000e+00   0.000000000000e+00   0.000000000000e+00   0.000000000000e+00   0.000000000000e+00   0.000000000000e+00   0.000000000000e+00   0.000000000000e+00   0.000000000000e+00 
  0.000000000000e+00   0.000000000000e+00   0.000000000000e+00   0.000000000000e+00   0.000000000000e+00   0.000000000000e+00   0.000000000000e+00   0.000000000000e+00   0.000000000000e+00 
  0.000000000000e+00   0.000000000000e+00   0.000000000000e+00   0.000000000000e+00   0.000000000000e+00   0.000000000000e+00   0.000000000000e+00   0.000000000000e+00   0.000000000000e+00 
  0.000000000000e+00   0.000000000000e+00   0.000000000000e+00   0.000000000000e+00   0.000000000000e+00   0.000000000000e+00   4.773645401001e+00   4.773625850677e+00   4.773589134216e+00 
  4.773539066315e+00   4.773481845856e+00   4.773421287537e+00   4.773362636566e+00   4.773308277130e+00   4.773259639740e+00   4.773217678070e+00   4.773182392120e+00   4.773153305054e+00 
  4.773129940033e+00   4.773111343384e+00   4.773097515106e+00   4.773087501526e+00   4.773080825806e+00   4.773077964783e+00   0.000000000000e+00   0.000000000000e+00   4.682085037231e+00 
  4.682062149048e+00   4.682019710541e+00   4.681962490082e+00   4.681897640228e+00   4.681831359863e+00   4.681767463684e+00   4.681709289551e+00   4.681658744812e+00   4.681615352631e+00 
  4.681579589844e+00   4.681550025940e+00   4.681526660919e+00   4.681508064270e+00   4.681494235992e+00   4.681484222412e+00   4.681478023529e+00   4.681475162506e+00   0.000000000000e+00 
  0.000000000000e+00   4.497114181519e+00   4.497084617615e+00   4.497029304504e+00   4.496956825256e+00   4.496876716614e+00   4.496796607971e+00   4.496722221375e+00   4.496657371521e+00 
  4.496602058411e+00   4.496556282043e+00   4.496519088745e+00   4.496489524841e+00   4.496466159821e+00   4.496448040009e+00   4.496434211731e+00   4.496424674988e+00   4.496418476105e+00 
  4.496415615082e+00   0.000000000000e+00   0.000000000000e+00   4.214570999146e+00   4.214529991150e+00   4.214454174042e+00   4.214355468750e+00   4.214248657227e+00   4.214146614075e+00 
  4.214056491852e+00   4.213980674744e+00   4.213919639587e+00   4.213870525360e+00   4.213832378387e+00   4.213802337646e+00   4.213779449463e+00   4.213761806488e+00   4.213748931885e+00 
  4.213739395142e+00   4.213733673096e+00   4.213730812073e+00   0.000000000000e+00   0.000000000000e+00   3.828053951263e+00   3.827998161316e+00   3.827893257141e+00   3.827754020691e+00 
  3.827606201172e+00   3.827471733093e+00   3.827359914780e+00   3.827271461487e+00   3.827203750610e+00   3.827152013779e+00   3.827113151550e+00   3.827083587646e+00   3.827061414719e+00 
  3.827044963837e+00   3.827032804489e+00   3.827024459839e+00   3.827018976212e+00   3.827016592026e+00   0.000000000000e+00   0.000000000000e+00   3.328795433044e+00   3.328732252121e+00 
  3.328603029251e+00   3.328408002853e+00   3.328199863434e+00   3.328021287918e+00   3.327883720398e+00   3.327782392502e+00   3.327709436417e+00   3.327656745911e+00   3.327618837357e+00 
  3.327591180801e+00   3.327570915222e+00   3.327555894852e+00   3.327545166016e+00   3.327537775040e+00   3.327533245087e+00   3.327531099319e+00   0.000000000000e+00   0.000000000000e+00 