# vtk DataFile Version 2.0
Written using VisIt writer
ASCII
DATASET RECTILINEAR_GRID
DIMENSIONS 20 20 20
X_COORDINATES 20 float
  0.000000000000e+00   1.000000000000e+00   2.000000000000e+00   3.000000000000e+00   4.000000000000e+00   5.000000000000e+00   6.000000000000e+00   7.000000000000e+00   8.000000000000e+00 
  9.000000000000e+00   1.000000000000e+01   1.100000000000e+01   1.200000000000e+01   1.300000000000e+01   1.400000000000e+01   1.500000000000e+01   1.600000000000e+01   1.700000000000e+01 
  1.800000000000e+01   1.900000000000e+01 
Y_COORDINATES 20 float
  0.000000000000e+00   1.000000000000e+00   2.000000000000e+00   3.000000000000e+00   4.000000000000e+00   5.000000000000e+00   6.000000000000e+00   7.000000000000e+00   8.000000000000e+00 
  9.000000000000e+00   1.000000000000e+01   1.100000000000e+01   1.200000000000e+01   1.300000000000e+01   1.400000000000e+01   1.500000000000e+01   1.600000000000e+01   1.700000000000e+01 
  1.800000000000e+01   1.900000000000e+01 
Z_COORDINATES 20 float
  0.000000000000e+00   1.000000000000e+00   2.000000000000e+00   3.000000000000e+00   4.000000000000e+00   5.000000000000e+00   6.000000000000e+00   7.000000000000e+00   8.000000000000e+00 
  9.000000000000e+00   1.000000000000e+01   1.100000000000e+01   1.200000000000e+01   1.300000000000e+01   1.400000000000e+01   1.500000000000e+01   1.600000000000e+01   1.700000000000e+01 
  1.800000000000e+01   1.900000000000e+01 
CELL_DATA 6859
POINT_DATA 8000
SCALARS pressure float
LOOKUP_TABLE default
  0.000000000000e+00   0.000000000000e+00   0.000000000000e+00   0.000000000000e+00   0.000000000000e+00   0.000000000000e+00   0.000000000000e+00   0.000000000000e+00   0.000000000000e+00 
  0.000000000000e+00   0.000000000000e+00   0.000000000000e+00   0.000000000000e+00   0.000000000000e+00   0.000000000000e+00   0.000000000000e+00   0.000000000000e+00   0.000000000000e+00 
  0.000000000000e+00   0.000000000000e+00   0.000000000000e+00   0.000000000000e+00   0.000000000000e+00   0.000000000000e+00   0.000000000000e+00   0.000000000000e+00   0.000000000000e+00 
  0.000000000000e+00   0.000000000000e+00   0.000000000000e+00   0.000000000000e+00   0.000000000000e+00   0.000000000000e+00   0.000000000000e+00   0.000000000000e+00   0.000000000000e+00 
  0.000000000000e+00   0.000000000000e+00   0.000000000000e+00   0.000000000000e+00   0.000000000000e+00   0.000000000000e+00   0.000000000000e+00   0.000000000000e+00   0.000000000000e+00 
  0.000000000000e+00   0.000000000000e+00   0.000000000000e+00   0.000000000000e+00   0.000000000000e+00   0.000000000000e+00   0.000000000000e+00   0.000000000000e+00   0.000000000000e+00 
  0.000000000000e+00   0.000000000000e+00   0.000000000000e+00   0.000000000000e+00   0.000000000000e+00   0.000000000000e+00   0.000000000000e+00   0.000000000000e+00   0.000000000000e+00 
  0.000000000000e+00   0.000000000000e+00   0.000000000000e+00   0.000000000000e+00   0.000000000000e+00   0.000000000000e+00   0.000000000000e+00   0.000000000000e+00   0.000000000000e+00 
  0.000000000000e+00   0.000000000000e+00   0.000000000000e+00   0.000000000000e+00   0.000000000000e+00   0.000000000000e+00   0.000000000000e+00   0.000000000000e+00   0.000000000000e+00 
  0.000000000000e+00   0.000000000000e+00   0.000000000000e+00   0.000000000000e+00   0.000000000000e+00   0.000000000000e+00   0.000000000000e+00   0.000000000000e+00   0.000000000000e+00 
  0.000000000000e+00   0.000000000000e+00   0.000000000000e+00   0.000000000000e+00   0.000000000000e+00   0.000000000000e+00   0.000000000000e+00   0.000000000000e+00   0.000000000000e+00 
  0.000000000000e+00   0.000000000000e+00   0.000000000000e+00   0.000000000000e+00   0.000000000000e+00   0.000000000000e+00   0.000000000000e+00   0.000000000000e+00   0.000000000000e+00 
  0.000000000000e+00   0.000000000000e+00   0.000000000000e+00   0.000000000000e+00   0.000000000000e+00   0.000000000000e+00   0.000000000000e+00   0.000000000000e+00   0.000000000000e+00 
  0.000000000000e+00   0.000000000000e+00   0.000000000000e+00   0.000000000000e+00   0.000000000000e+00   0.000000000000e+00   0.000000000000e+00   0.000000000000e+00   0.000000000000e+00 
  0.000000000000e+00   0.000000000000e+00   0.000000000000e+00   0.000000000000e+00   0.000000000000e+00   0.000000000000e+00   0.000000000000e+00   0.000000000000e+00   0.000000000000e+00 
  0.000000000000e+00   0.000000000000e+00   0.000000000000e+00   0.000000000000e+00   0.000000000000e+00   0.000000000000e+00   0.000000000000e+00   0.000000000000e+00   0.000000000000e+00 
  0.000000000000e+00   0.000000000000e+00   0.000000000000e+00   0.000000000000e+00   0.000000000000e+00   0.000000000000e+00   0.000000000000e+00   0.000000000000e+00   0.000000000000e+00 
  0.000000000000e+00   0.000000000000e+00   0.000000000000e+00   0.000000000000e+00   0.000000000000e+00   0.000000000000e+00   0.000000000000e+00   0.000000000000e+00   0.000000000000e+00 
  0.000000000000e+00   0.000000000000e+00   0.000000000000e+00   0.000000000000e+00   0.000000000000e+00   0.000000000000e+00   0.000000000000e+00   0.000000000000e+00   0.000000000000e+00 
  0.000000000000e+00   0.000000000000e+00   0.000000000000e+00   0.000000000000e+00   0.000000000000e+00   0.000000000000e+00   0.000000000000e+00   0.000000000000e+00   0.000000000000e+00 
  0.000000000000e+00   0.000000000000e+00   0.000000000000e+00   0.000000000000e+00   0.000000000000e+00   0.000000000000e+00   0.000000000000e+00   0.000000000000e+00   0.000000000000e+00 
  0.000000000000e+00   0.000000000000e+00   0.000000000000e+00   0.000000000000e+00   0.000000000000e+00   0.000000000000e+00   0.000000000000e+00   0.000000000000e+00   0.000000000000e+00 
  0.000000000000e+00   0.000000000000e+00   0.000000000000e+00   0.000000000000e+00   0.000000000000e+00   0.000000000000e+00   0.000000000000e+00   0.000000000000e+00   0.000000000000e+00 
  0.000000000000e+00   0.000000000000e+00   0.000000000000e+00   0.000000000000e+00   0.000000000000e+00   0.000000000000e+00   0.000000000000e+00   0.000000000000e+00   0.000000000000e+00 
  0.000000000000e+00   0.000000000000e+00   0.000000000000e+00   0.000000000000e+00   0.000000000000e+00   0.000000000000e+00   0.000000000000e+00   0.000000000000e+00   0.000000000000e+00 
  0.000000000000e+00   0.000000000000e+00   0.000000000000e+00   0.000000000000e+00   0.000000000000e+00   0.000000000000e+00   0.000000000000e+00   0.000000000000e+00   0.000000000000e+00 
  0.000000000000e+00   0.000000000000e+00   0.000000000000e+00   0.000000000000e+00   0.000000000000e+00   0.000000000000e+00   0.000000000000e+00   0.000000000000e+00   0.000000000000e+00 
  0.000000000000e+00   0.000000000000e+00   0.000000000000e+00   0.000000000000e+00   0.000000000000e+00   0.000000000000e+00   0.000000000000e+00   0.000000000000e+00   0.000000000000e+00 
  0.000000000000e+00   0.000000000000e+00   0.000000000000e+00   0.000000000000e+00   0.000000000000e+00   0.000000000000e+00   0.000000000000e+00   0.000000000000e+00   0.000000000000e+00 
  0.000000000000e+00   0.000000000000e+00   0.000000000000e+00   0.000000000000e+00   0.000000000000e+00   0.000000000000e+00   0.000000000000e+00   0.000000000000e+00   0.000000000000e+00 
  0.000000000000e+00   0.000000000000e+00   0.000000000000e+00   0.000000000000e+00   0.000000000000e+00   0.000000000000e+00   0.000000000000e+00   0.000000000000e+00   0.000000000000e+00 
  0.000000000000e+00   0.000000000000e+00   0.000000000000e+00   0.000000000000e+00   0.000000000000e+00   0.000000000000e+00   0.000000000000e+00   0.000000000000e+00   0.000000000000e+00 
  0.000000000000e+00   0.000000000000e+00   0.000000000000e+00   0.000000000000e+00   0.000000000000e+00   0.000000000000e+00   0.000000000000e+00   0.000000000000e+00   0.000000000000e+00 
  0.000000000000e+00   0.000000000000e+00   0.000000000000e+00   0.000000000000e+00   0.000000000000e+00   0.000000000000e+00   0.000000000000e+00   0.000000000000e+00   0.000000000000e+00 
  0.000000000000e+00   0.000000000000e+00   0.000000000000e+00   0.000000000000e+00   0.000000000000e+00   0.000000000000e+00   0.000000000000e+00   0.000000000000e+00   0.000000000000e+00 
  0.000000000000e+00   0.000000000000e+00   0.000000000000e+00   0.000000000000e+00   0.000000000000e+00   0.000000000000e+00   0.000000000000e+00   0.000000000000e+00   0.000000000000e+00 
  0.000000000000e+00   0.000000000000e+00   0.000000000000e+00   0.000000000000e+00   0.000000000000e+00   0.000000000000e+00   0.000000000000e+00   0.000000000000e+00   0.000000000000e+00 
  0.000000000000e+00   0.000000000000e+00   0.000000000000e+00   0.000000000000e+00   0.000000000000e+00   0.000000000000e+00   0.000000000000e+00   0.000000000000e+00   0.000000000000e+00 
  0.000000000000e+00   0.000000000000e+00   0.000000000000e+00   0.000000000000e+00   0.000000000000e+00   0.000000000000e+00   0.000000000000e+00   0.000000000000e+00   0.000000000000e+00 
  0.000000000000e+00   0.000000000000e+00   0.000000000000e+00   0.000000000000e+00   0.000000000000e+00   0.000000000000e+00   0.000000000000e+00   0.000000000000e+00   0.000000000000e+00 
  0.000000000000e+00   0.000000000000e+00   0.000000000000e+00   0.000000000000e+00   0.000000000000e+00   0.000000000000e+00   0.000000000000e+00   0.000000000000e+00   0.000000000000e+00 
  0.000000000000e+00   0.000000000000e+00   0.000000000000e+00   0.000000000000e+00   0.000000000000e+00   0.000000000000e+00   0.000000000000e+00   0.000000000000e+00   0.000000000000e+00 
  0.000000000000e+00   0.000000000000e+00   0.000000000000e+00   0.000000000000e+00   0.000000000000e+00   0.000000000000e+00   0.000000000000e+00   0.000000000000e+00   0.000000000000e+00 
  0.000000000000e+00   0.000000000000e+00   0.000000000000e+00   0.000000000000e+00   0.000000000000e+00   0.000000000000e+00   0.000000000000e+00   0.000000000000e+00   0.000000000000e+00 
  0.000000000000e+00   0.000000000000e+00   0.000000000000e+00   0.000000000000e+00   0.000000000000e+00   0.000000000000e+00   0.000000000000e+00   0.000000000000e+00   0.000000000000e+00 
  0.000000000000e+00   0.000000000000e+00   0.000000000000e+00   0.000000000000e+00   0.000000000000e+00   0.000000000000e+00   0.000000000000e+00   0.000000000000e+00   0.000000000000e+00 
  0.000000000000e+00   0.000000000000e+00   0.000000000000e+00   0.000000000000e+00   0.000000000000e+00   0.000000000000e+00   0.000000000000e+00   1.052331638336e+01   1.052340412140e+01 
  1.052357482910e+01   1.052382373810e+01   1.052414131165e+01   1.052451324463e+01   1.052492618561e+01   1.052536201477e+01   1.052580642700e+01   1.052624320984e+01   1.052666187286e+01 
  1.052705097198e+01   1.052740192413e+01   1.052770996094e+01   1.052795791626e+01   1.052817344666e+01   1.052823638916e+01   1.052851295471e+01   0.000000000000e+00   0.000000000000e+00 
  1.047217464447e+01   1.047226905823e+01   1.047245597839e+01   1.047272872925e+01   1.047307682037e+01   1.047348594666e+01   1.047393703461e+01   1.047441196442e+01   1.047489261627e+01 
  1.047536277771e+01   1.047581100464e+01   1.047622776031e+01   1.047660446167e+01   1.047693347931e+01   1.047720050812e+01   1.047743320465e+01   1.047750473022e+01   1.047779273987e+01 
  0.000000000000e+00   0.000000000000e+00   1.036272239685e+01   1.036279296875e+01   1.036293125153e+01   1.036314201355e+01   1.036342430115e+01   1.036376953125e+01   1.036416530609e+01 
  1.036459255219e+01   1.036503505707e+01   1.036547565460e+01   1.036590290070e+01   1.036630535126e+01   1.036667346954e+01   1.036700057983e+01   1.036726760864e+01   1.036750316620e+01 
  1.036757278442e+01   1.036788272858e+01   0.000000000000e+00   0.000000000000e+00   1.018554019928e+01   1.018563842773e+01   1.018584156036e+01   1.018615150452e+01   1.018656444550e+01 
  1.018706130981e+01   1.018761730194e+01   1.018820095062e+01   1.018878459930e+01   1.018935108185e+01   1.018988704681e+01   1.019038581848e+01   1.019084072113e+01   1.019124603271e+01 
  1.019158077240e+01   1.019187736511e+01   1.019197368622e+01   1.019233322144e+01   0.000000000000e+00   0.000000000000e+00   9.961721420288e+00   9.961744308472e+00   9.961806297302e+00 
  9.961945533752e+00   9.962186813354e+00   9.962532043457e+00   9.962961196899e+00   9.963440895081e+00   9.963942527771e+00   9.964442253113e+00   9.964928627014e+00   9.965394973755e+00 
  9.965832710266e+00   9.966235160828e+00   9.966570854187e+00   9.966877937317e+00   9.966966629028e+00   9.967386245728e+00   0.000000000000e+00   0.000000000000e+00   9.625245094299e+00 
  9.625318527222e+00   9.625515937805e+00   9.625885963440e+00   9.626459121704e+00   9.627205848694e+00   9.628049850464e+00   9.628913879395e+00   9.629738807678e+00   9.630499839783e+00 
  9.631197929382e+00   9.631846427917e+00   9.632448196411e+00   9.632997512817e+00   9.633464813232e+00   9.633890151978e+00   9.634033203125e+00   9.634566307068e+00   0.000000000000e+00 
  0.000000000000e+00   9.178679466248e+00   9.178239822388e+00   9.177502632141e+00   9.176733970642e+00   9.176125526428e+00   9.175773620605e+00   9.175680160522e+00   9.175791740417e+00 
  9.176024436951e+00   9.176310539246e+00   9.176634788513e+00   9.177005767822e+00   9.177412986755e+00   9.177828788757e+00   9.178190231323e+00   9.178539276123e+00   9.178588867188e+00 
  9.179240226746e+00   0.000000000000e+00   0.000000000000e+00   8.651918411255e+00   8.651048660278e+00   8.649596214294e+00   8.648131370544e+00   8.647032737732e+00   8.646410942078e+00 
  8.646205902100e+00   8.646289825439e+00   8.646492958069e+00   8.646703720093e+00   8.646942138672e+00   8.647269248962e+00   8.647688865662e+00   8.648151397705e+00   8.648561477661e+00 
  8.648958206177e+00   8.648974418640e+00   8.649838447571e+00   0.000000000000e+00   0.000000000000e+00   8.053384780884e+00   8.052196502686e+00   8.050342559814e+00   8.049025535583e+00 
  8.048829078674e+00   8.049584388733e+00   8.050749778748e+00   8.051938056946e+00   8.052853584290e+00   8.053370475769e+00   8.053733825684e+00   8.054175376892e+00   8.054736137390e+00 
  8.055358886719e+00   8.055925369263e+00   8.056475639343e+00   8.056504249573e+00   8.057744026184e+00   0.000000000000e+00   0.000000000000e+00   7.119998931885e+00   7.119302749634e+00 
  7.118317127228e+00   7.118354797363e+00   7.120065689087e+00   7.122895717621e+00   7.125719547272e+00   7.128049850464e+00   7.129653453827e+00   7.130464076996e+00   7.130916595459e+00 
  7.131487846375e+00   7.132227897644e+00   7.133049011230e+00   7.133813381195e+00   7.134500503540e+00   7.134429454803e+00   7.136156082153e+00   0.000000000000e+00   0.000000000000e+00 
  5.888610363007e+00   5.886711597443e+00   5.884814262390e+00   5.883209228516e+00   5.881775379181e+00   5.881045818329e+00   5.881226062775e+00   5.882048130035e+00   5.882991313934e+00 
  5.883191585541e+00   5.883112430573e+00   5.883537292480e+00   5.884263038635e+00   5.885007858276e+00   5.885747909546e+00   5.886318206787e+00   5.885815143585e+00   5.887886047363e+00 
  0.000000000000e+00   0.000000000000e+00   4.444533824921e+00   4.437961101532e+00   4.433808803558e+00   4.430175781250e+00   4.424803256989e+00   4.421298980713e+00   4.420292377472e+00 
  4.419661998749e+00   4.420381069183e+00   4.419893264771e+00   4.419395446777e+00   4.419365406036e+00   4.419888496399e+00   4.420296669006e+00   4.421114921570e+00   4.421541690826e+00 
  4.420539855957e+00   4.422733783722e+00   0.000000000000e+00   0.000000000000e+00   2.981509208679e+00   2.977001190186e+00   2.977800846100e+00   2.976142883301e+00   2.975343704224e+00 
  2.967815876007e+00   2.963156461716e+00   2.959357500076e+00   2.958444356918e+00   2.954391002655e+00   2.952906370163e+00   2.954532623291e+00   2.953976392746e+00   2.951699733734e+00 
  2.951155662537e+00   2.951259613037e+00   2.950424194336e+00   2.952541828156e+00   0.000000000000e+00   0.000000000000e+00   1.551715612411e+00   1.540466904640e+00   1.523497700691e+00 
  1.515980362892e+00   1.512647271156e+00   1.518052220345e+00   1.520899772644e+00   1.520061731339e+00   1.518454551697e+00   1.516994357109e+00   1.515626549721e+00   1.514190077782e+00 
  1.513598799706e+00   1.513863086700e+00   1.514248728752e+00   1.514433741570e+00   1.513967752457e+00   1.515535593033e+00   0.000000000000e+00   0.000000000000e+00   0.000000000000e+00 
  0.000000000000e+00   0.000000000000e+00   0.000000000000e+00   0.000000000000e+00   0.000000000000e+00   0.000000000000e+00   0.000000000000e+00   0.000000000000e+00   0.000000000000e+00 
  0.000000000000e+00   0.000000000000e+00   0.000000000000e+00   0.000000000000e+00   0.000000000000e+00   0.000000000000e+00   0.000000000000e+00   0.000000000000e+00   0.000000000000e+00 
  0.000000000000e+00   0.000000000000e+00   0.000000000000e+00   0.000000000000e+00   0.000000000000e+00   0.000000000000e+00   0.000000000000e+00   0.000000000000e+00   0.000000000000e+00 
  0.000000000000e+00   0.000000000000e+00   0.000000000000e+00   0.000000000000e+00   0.000000000000e+00   0.000000000000e+00   0.000000000000e+00   0.000000000000e+00   0.000000000000e+00 
  0.000000000000e+00   0.000000000000e+00   0.000000000000e+00   0.000000000000e+00   0.000000000000e+00   0.000000000000e+00   0.000000000000e+00   0.000000000000e+00   0.000000000000e+00 
  0.000000000000e+00   0.000000000000e+00   0.000000000000e+00   0.000000000000e+00   0.000000000000e+00   0.000000000000e+00   0.000000000000e+00   0.000000000000e+00   0.000000000000e+00 
  0.000000000000e+00   0.000000000000e+00   0.000000000000e+00   0.000000000000e+00   0.000000000000e+00   0.000000000000e+00   0.000000000000e+00   0.000000000000e+00   0.000000000000e+00 
  0.000000000000e+00   0.000000000000e+00   0.000000000000e+00   0.000000000000e+00   0.000000000000e+00   0.000000000000e+00   0.000000000000e+00   0.000000000000e+00   0.000000000000e+00 
  0.000000000000e+00   0.000000000000e+00   0.000000000000e+00   0.000000000000e+00   0.000000000000e+00   0.000000000000e+00   0.000000000000e+00   0.000000000000e+00   0.000000000000e+00 
  0.000000000000e+00   0.000000000000e+00   0.000000000000e+00   0.000000000000e+00   0.000000000000e+00   0.000000000000e+00   0.000000000000e+00   0.000000000000e+00   0.000000000000e+00 
  0.000000000000e+00   0.000000000000e+00   0.000000000000e+00   0.000000000000e+00   0.000000000000e+00   0.000000000000e+00   0.000000000000e+00   0.000000000000e+00   0.000000000000e+00 
  0.000000000000e+00   0.000000000000e+00   0.000000000000e+00   0.000000000000e+00   0.000000000000e+00   0.000000000000e+00   0.000000000000e+00   0.000000000000e+00   0.000000000000e+00 
  0.000000000000e+00   0.000000000000e+00   0.000000000000e+00   0.000000000000e+00   0.000000000000e+00   0.000000000000e+00   0.000000000000e+00   0.000000000000e+00   0.000000000000e+00 
  0.000000000000e+00   0.000000000000e+00   9.522503852844e+00   9.522587776184e+00   9.522751808167e+00   9.522991180420e+00   9.523295402527e+00   9.523653030396e+00   9.524049758911e+00 
  9.524467468262e+00   9.524893760681e+00   9.525313377380e+00   9.525714874268e+00   9.526088714600e+00   9.526425361633e+00   9.526720046997e+00   9.526956558228e+00   9.527162551880e+00 
  9.527220726013e+00   9.527483940125e+00   0.000000000000e+00   0.000000000000e+00   9.471647262573e+00   9.471735000610e+00   9.471909523010e+00   9.472163200378e+00   9.472488403320e+00 
  9.472870826721e+00   9.473294258118e+00   9.473741531372e+00   9.474194526672e+00   9.474639892578e+00   9.475064277649e+00   9.475460052490e+00   9.475817680359e+00   9.476130485535e+00 
  9.476383209229e+00   9.476602554321e+00   9.476668357849e+00   9.476940155029e+00   0.000000000000e+00   0.000000000000e+00   9.372166633606e+00   9.372231483459e+00   9.372359275818e+00 
  9.372553825378e+00   9.372814178467e+00   9.373134613037e+00   9.373501777649e+00   9.373900413513e+00   9.374315261841e+00   9.374730110168e+00   9.375132560730e+00   9.375513076782e+00 
  9.375861167908e+00   9.376170158386e+00   9.376420974731e+00   9.376642227173e+00   9.376705169678e+00   9.376996040344e+00   0.000000000000e+00   0.000000000000e+00   9.187100410461e+00 
  9.187184333801e+00   9.187358856201e+00   9.187627792358e+00   9.187988281250e+00   9.188429832458e+00   9.188927650452e+00   9.189457893372e+00   9.189995765686e+00   9.190522193909e+00 
  9.191024780273e+00   9.191495895386e+00   9.191927909851e+00   9.192315101624e+00   9.192634582520e+00   9.192917823792e+00   9.193010330200e+00   9.193345069885e+00   0.000000000000e+00 
  0.000000000000e+00   8.985204696655e+00   8.985219001770e+00   8.985263824463e+00   8.985373497009e+00   8.985573768616e+00   8.985869407654e+00   8.986245155334e+00   8.986676216125e+00 
  8.987133979797e+00   8.987598419189e+00   8.988055229187e+00   8.988497734070e+00   8.988917350769e+00   8.989304542542e+00   8.989628791809e+00   8.989924430847e+00   8.990010261536e+00 
  8.990400314331e+00   0.000000000000e+00   0.000000000000e+00   8.611563682556e+00   8.611551284790e+00   8.611568450928e+00   8.611687660217e+00   8.611959457397e+00   8.612384796143e+00 
  8.612923622131e+00   8.613520622253e+00   8.614129066467e+00   8.614719390869e+00   8.615285873413e+00   8.615833282471e+00   8.616359710693e+00   8.616854667664e+00   8.617279052734e+00 
  8.617671966553e+00   8.617799758911e+00   8.618297576904e+00   0.000000000000e+00   0.000000000000e+00   8.196954727173e+00   8.196643829346e+00   8.196129798889e+00   8.195617675781e+00 
  8.195254325867e+00   8.195102691650e+00   8.195156097412e+00   8.195368766785e+00   8.195671081543e+00   8.196004867554e+00   8.196363449097e+00   8.196766853333e+00   8.197207450867e+00 
  8.197656631470e+00   8.198047637939e+00   8.198423385620e+00   8.198495864868e+00   8.199128150940e+00   0.000000000000e+00   0.000000000000e+00   7.632201194763e+00   7.631597995758e+00 
  7.630646228790e+00   7.629853248596e+00   7.629539966583e+00   7.629732608795e+00   7.630263328552e+00   7.630943298340e+00   7.631600856781e+00   7.632151603699e+00   7.632658481598e+00 
  7.633212566376e+00   7.633817672729e+00   7.634428977966e+00   7.634965896606e+00   7.635483264923e+00   7.635584354401e+00   7.636499881744e+00   0.000000000000e+00   0.000000000000e+00 
  6.986144065857e+00   6.985454082489e+00   6.984386444092e+00   6.983816623688e+00   6.984186172485e+00   6.985266685486e+00   6.986584186554e+00   6.987876892090e+00   6.988868713379e+00 
  6.989373207092e+00   6.989669322968e+00   6.990110397339e+00   6.990706920624e+00   6.991368770599e+00   6.991961002350e+00   6.992510795593e+00   6.992466449738e+00   6.993813991547e+00 
  0.000000000000e+00   0.000000000000e+00   6.036353588104e+00   6.034974575043e+00   6.033018112183e+00   6.031322956085e+00   6.030585765839e+00   6.031134128571e+00   6.032345294952e+00 
  6.033912658691e+00   6.035102844238e+00   6.035444259644e+00   6.035591602325e+00   6.036041259766e+00   6.036780834198e+00   6.037657260895e+00   6.038535118103e+00   6.039328098297e+00 
  6.039189815521e+00   6.041255474091e+00   0.000000000000e+00   0.000000000000e+00   4.849980831146e+00   4.846789836884e+00   4.842585086823e+00   4.839341163635e+00   4.837282657623e+00 
  4.836666107178e+00   4.837422370911e+00   4.839200496674e+00   4.840418815613e+00   4.839534759521e+00   4.838635921478e+00   4.838402748108e+00   4.838879585266e+00   4.839659690857e+00 
  4.840706825256e+00   4.841522216797e+00   4.840936660767e+00   4.843759536743e+00   0.000000000000e+00   0.000000000000e+00   3.349153757095e+00   3.339200019836e+00   3.332169771194e+00 
  3.324285984039e+00   3.316248893738e+00   3.314201354980e+00   3.309433460236e+00   3.300798416138e+00   3.298709154129e+00   3.298769950867e+00   3.300433158875e+00   3.296065092087e+00 
  3.294616222382e+00   3.296665191650e+00   3.302624464035e+00   3.305062532425e+00   3.303593635559e+00   3.306851387024e+00   0.000000000000e+00   0.000000000000e+00   1.621894001961e+00 
  1.594980716705e+00   1.573236346245e+00   1.558343172073e+00   1.549548149109e+00   1.550878405571e+00   1.551150560379e+00   1.552534461021e+00   1.551771640778e+00   1.550446629524e+00 
  1.551625490189e+00   1.551206707954e+00   1.552683353424e+00   1.555341005325e+00   1.558283805847e+00   1.559663891792e+00   1.559318900108e+00   1.562215447426e+00   0.000000000000e+00 
  0.000000000000e+00   0.000000000000e+00   0.000000000000e+00   0.000000000000e+00   0.000000000000e+00   0.000000000000e+00   0.000000000000e+00   0.000000000000e+00   0.000000000000e+00 
  0.000000000000e+00   0.000000000000e+00   0.000000000000e+00   0.000000000000e+00   0.000000000000e+00   0.000000000000e+00   0.000000000000e+00   0.000000000000e+00   0.000000000000e+00 
  0.000000000000e+00   0.000000000000e+00   0.000000000000e+00   0.000000000000e+00   0.000000000000e+00   0.000000000000e+00   0.000000000000e+00   0.000000000000e+00   0.000000000000e+00 
  0.000000000000e+00   0.000000000000e+00   0.000000000000e+00   0.000000000000e+00   0.000000000000e+00   0.000000000000e+00   0.000000000000e+00   0.000000000000e+00   0.000000000000e+00 
  0.000000000000e+00   0.000000000000e+00   0.000000000000e+00   0.000000000000e+00   0.000000000000e+00   0.000000000000e+00   0.000000000000e+00   0.000000000000e+00   0.000000000000e+00 
  0.000000000000e+00   0.000000000000e+00   0.000000000000e+00   0.000000000000e+00   0.000000000000e+00   0.000000000000e+00   0.000000000000e+00   0.000000000000e+00   0.000000000000e+00 
  0.000000000000e+00   0.000000000000e+00   0.000000000000e+00   0.000000000000e+00   0.000000000000e+00   0.000000000000e+00   0.000000000000e+00   0.000000000000e+00   0.000000000000e+00 
  0.000000000000e+00   0.000000000000e+00   0.000000000000e+00   0.000000000000e+00   0.000000000000e+00   0.000000000000e+00   0.000000000000e+00   0.000000000000e+00   0.000000000000e+00 
  0.000000000000e+00   0.000000000000e+00   0.000000000000e+00   0.000000000000e+00   0.000000000000e+00   0.000000000000e+00   0.000000000000e+00   0.000000000000e+00   0.000000000000e+00 
  0.000000000000e+00   0.000000000000e+00   0.000000000000e+00   0.000000000000e+00   0.000000000000e+00   0.000000000000e+00   0.000000000000e+00   0.000000000000e+00   0.000000000000e+00 
  0.000000000000e+00   0.000000000000e+00   0.000000000000e+00   0.000000000000e+00   0.000000000000e+00   0.000000000000e+00   0.000000000000e+00   0.000000000000e+00   0.000000000000e+00 
  0.000000000000e+00   0.000000000000e+00   0.000000000000e+00   0.000000000000e+00   0.000000000000e+00   0.000000000000e+00   0.000000000000e+00   0.000000000000e+00   0.000000000000e+00 
  0.000000000000e+00   0.000000000000e+00   0.000000000000e+00   0.000000000000e+00   0.000000000000e+00   0.000000000000e+00   0.000000000000e+00   0.000000000000e+00   0.000000000000e+00 
  0.000000000000e+00   0.000000000000e+00   0.000000000000e+00   0.000000000000e+00   0.000000000000e+00   0.000000000000e+00   0.000000000000e+00   0.000000000000e+00   0.000000000000e+00 
  0.000000000000e+00   0.000000000000e+00   0.000000000000e+00   0.000000000000e+00   0.000000000000e+00   0.000000000000e+00   0.000000000000e+00   0.000000000000e+00   0.000000000000e+00 
  0.000000000000e+00   0.000000000000e+00   0.000000000000e+00   0.000000000000e+00   0.000000000000e+00   0.000000000000e+00   8.507342338562e+00   8.507417678833e+00   8.507564544678e+00 
  8.507777214050e+00   8.508047103882e+00   8.508363723755e+00   8.508713722229e+00   8.509082794189e+00   8.509458541870e+00   8.509829521179e+00   8.510183334351e+00   8.510512351990e+00 
  8.510808944702e+00   8.511066436768e+00   8.511272430420e+00   8.511449813843e+00   8.511497497559e+00   8.511730194092e+00   0.000000000000e+00   0.000000000000e+00   8.455511093140e+00 
  8.455587387085e+00   8.455736160278e+00   8.455953598022e+00   8.456232070923e+00   8.456560134888e+00   8.456923484802e+00   8.457307815552e+00   8.457699775696e+00   8.458085060120e+00 
  8.458454132080e+00   8.458797454834e+00   8.459106445312e+00   8.459377288818e+00   8.459593772888e+00   8.459781646729e+00   8.459834098816e+00   8.460073471069e+00   0.000000000000e+00 
  0.000000000000e+00   8.367918968201e+00   8.367982864380e+00   8.368109703064e+00   8.368299484253e+00   8.368549346924e+00   8.368852615356e+00   8.369196891785e+00   8.369566917419e+00 
  8.369949340820e+00   8.370330810547e+00   8.370698928833e+00   8.371045112610e+00   8.371360778809e+00   8.371638298035e+00   8.371862411499e+00   8.372057914734e+00   8.372112274170e+00 
  8.372363090515e+00   0.000000000000e+00   0.000000000000e+00   8.166466712952e+00   8.166525840759e+00   8.166646957397e+00   8.166836738586e+00   8.167096138000e+00   8.167419433594e+00 
  8.167793273926e+00   8.168200492859e+00   8.168622016907e+00   8.169042587280e+00   8.169450759888e+00   8.169837951660e+00   8.170196533203e+00   8.170519828796e+00   8.170785903931e+00 
  8.171023368835e+00   8.171096801758e+00   8.171380043030e+00   0.000000000000e+00   0.000000000000e+00   7.975239276886e+00   7.975278854370e+00   7.975368499756e+00   7.975530624390e+00 
  7.975779533386e+00   7.976112842560e+00   7.976514816284e+00   7.976963043213e+00   7.977433681488e+00   7.977905273438e+00   7.978365421295e+00   7.978808879852e+00   7.979228019714e+00 
  7.979619503021e+00   7.979950904846e+00   7.980247020721e+00   7.980346679688e+00   7.980676651001e+00   0.000000000000e+00   0.000000000000e+00   7.606849670410e+00   7.606821537018e+00 
  7.606798648834e+00   7.606846809387e+00   7.607012748718e+00   7.607304096222e+00   7.607701778412e+00   7.608171463013e+00   7.608675003052e+00   7.609183311462e+00   7.609687328339e+00 
  7.610190868378e+00   7.610684394836e+00   7.611150264740e+00   7.611544132233e+00   7.611896991730e+00   7.612009525299e+00   7.612433433533e+00   0.000000000000e+00   0.000000000000e+00 