# vtk DataFile Version 2.0
Written using VisIt writer
ASCII
DATASET RECTILINEAR_GRID
DIMENSIONS 20 20 20
X_COORDINATES 20 float
  0.000000000000e+00   1.000000000000e+00   2.000000000000e+00   3.000000000000e+00   4.000000000000e+00   5.000000000000e+00   6.000000000000e+00   7.000000000000e+00   8.000000000000e+00 
  9.000000000000e+00   1.000000000000e+01   1.100000000000e+01   1.200000000000e+01   1.300000000000e+01   1.400000000000e+01   1.500000000000e+01   1.600000000000e+01   1.700000000000e+01 
  1.800000000000e+01   1.900000000000e+01 
Y_COORDINATES 20 float
  0.000000000000e+00   1.000000000000e+00   2.000000000000e+00   3.000000000000e+00   4.000000000000e+00   5.000000000000e+00   6.000000000000e+00   7.000000000000e+00   8.000000000000e+00 
  9.000000000000e+00   1.000000000000e+01   1.100000000000e+01   1.200000000000e+01   1.300000000000e+01   1.400000000000e+01   1.500000000000e+01   1.600000000000e+01   1.700000000000e+01 
  1.800000000000e+01   1.900000000000e+01 
Z_COORDINATES 20 float
  0.000000000000e+00   1.000000000000e+00   2.000000000000e+00   3.000000000000e+00   4.000000000000e+00   5.000000000000e+00   6.000000000000e+00   7.000000000000e+00   8.000000000000e+00 
  9.000000000000e+00   1.000000000000e+01   1.100000000000e+01   1.200000000000e+01   1.300000000000e+01   1.400000000000e+01   1.500000000000e+01   1.600000000000e+01   1.700000000000e+01 
  1.800000000000e+01   1.900000000000e+01 
CELL_DATA 6859
POINT_DATA 8000
SCALARS pressure float
LOOKUP_TABLE default
  0.000000000000e+00   0.000000000000e+00   0.000000000000e+00   0.000000000000e+00   0.000000000000e+00   0.000000000000e+00   0.000000000000e+00   0.000000000000e+00   0.000000000000e+00 
  0.000000000000e+00   0.000000000000e+00   0.000000000000e+00   0.000000000000e+00   0.000000000000e+00   0.000000000000e+00   0.000000000000e+00   0.000000000000e+00   0.000000000000e+00 
  0.000000000000e+00   0.000000000000e+00   0.000000000000e+00   0.000000000000e+00   0.000000000000e+00   0.000000000000e+00   0.000000000000e+00   0.000000000000e+00   0.000000000000e+00 
  0.000000000000e+00   0.000000000000e+00   0.000000000000e+00   0.000000000000e+00   0.000000000000e+00   0.000000000000e+00   0.000000000000e+00   0.000000000000e+00   0.000000000000e+00 
  0.000000000000e+00   0.000000000000e+00   0.000000000000e+00   0.000000000000e+00   0.000000000000e+00   0.000000000000e+00   0.000000000000e+00   0.000000000000e+00   0.000000000000e+00 
  0.000000000000e+00   0.000000000000e+00   0.000000000000e+00   0.000000000000e+00   0.000000000000e+00   0.000000000000e+00   0.000000000000e+00   0.000000000000e+00   0.000000000000e+00 
  0.000000000000e+00   0.000000000000e+00   0.000000000000e+00   0.000000000000e+00   0.000000000000e+00   0.000000000000e+00   0.000000000000e+00   0.000000000000e+00   0.000000000000e+00 
  0.000000000000e+00   0.000000000000e+00   0.000000000000e+00   0.000000000000e+00   0.000000000000e+00   0.000000000000e+00   0.000000000000e+00   0.000000000000e+00   0.000000000000e+00 
  0.000000000000e+00   0.000000000000e+00   0.000000000000e+00   0.000000000000e+00   0.000000000000e+00   0.000000000000e+00   0.000000000000e+00   0.000000000000e+00   0.000000000000e+00 
  0.000000000000e+00   0.000000000000e+00   0.000000000000e+00   0.000000000000e+00   0.000000000000e+00   0.000000000000e+00   0.000000000000e+00   0.000000000000e+00   0.000000000000e+00 
  0.000000000000e+00   0.000000000000e+00   0.000000000000e+00   0.000000000000e+00   0.000000000000e+00   0.000000000000e+00   0.000000000000e+00   0.000000000000e+00   0.000000000000e+00 
  0.000000000000e+00   0.000000000000e+00   0.000000000000e+00   0.000000000000e+00   0.000000000000e+00   0.000000000000e+00   0.000000000000e+00   0.000000000000e+00   0.000000000000e+00 
  0.000000000000e+00   0.000000000000e+00   0.000000000000e+00   0.000000000000e+00   0.000000000000e+00   0.000000000000e+00   0.000000000000e+00   0.000000000000e+00   0.000000000000e+00 
  0.000000000000e+00   0.000000000000e+00   0.000000000000e+00   0.000000000000e+00   0.000000000000e+00   0.000000000000e+00   0.000000000000e+00   0.000000000000e+00   0.000000000000e+00 
  0.000000000000e+00   0.000000000000e+00   0.000000000000e+00   0.000000000000e+00   0.000000000000e+00   0.000000000000e+00   0.000000000000e+00   0.000000000000e+00   0.000000000000e+00 
  0.000000000000e+00   0.000000000000e+00   0.000000000000e+00   0.000000000000e+00   0.000000000000e+00   0.000000000000e+00   0.000000000000e+00   0.000000000000e+00   0.000000000000e+00 
  0.000000000000e+00   0.000000000000e+00   0.000000000000e+00   0.000000000000e+00   0.000000000000e+00   0.000000000000e+00   0.000000000000e+00   0.000000000000e+00   0.000000000000e+00 
  0.000000000000e+00   0.000000000000e+00   0.000000000000e+00   0.000000000000e+00   0.000000000000e+00   0.000000000000e+00   0.000000000000e+00   0.000000000000e+00   0.000000000000e+00 
  0.000000000000e+00   0.000000000000e+00   0.000000000000e+00   0.000000000000e+00   0.000000000000e+00   0.000000000000e+00   0.000000000000e+00   0.000000000000e+00   0.000000000000e+00 
  0.000000000000e+00   0.000000000000e+00   0.000000000000e+00   0.000000000000e+00   0.000000000000e+00   0.000000000000e+00   0.000000000000e+00   0.000000000000e+00   0.000000000000e+00 
  0.000000000000e+00   0.000000000000e+00   0.000000000000e+00   0.000000000000e+00   0.000000000000e+00   0.000000000000e+00   0.000000000000e+00   0.000000000000e+00   0.000000000000e+00 
  0.000000000000e+00   0.000000000000e+00   0.000000000000e+00   0.000000000000e+00   0.000000000000e+00   0.000000000000e+00   0.000000000000e+00   0.000000000000e+00   0.000000000000e+00 
  0.000000000000e+00   0.000000000000e+00   0.000000000000e+00   0.000000000000e+00   0.000000000000e+00   0.000000000000e+00   0.000000000000e+00   0.000000000000e+00   0.000000000000e+00 
  0.000000000000e+00   0.000000000000e+00   0.000000000000e+00   0.000000000000e+00   0.000000000000e+00   0.000000000000e+00   0.000000000000e+00   0.000000000000e+00   0.000000000000e+00 
  0.000000000000e+00   0.000000000000e+00   0.000000000000e+00   0.000000000000e+00   0.000000000000e+00   0.000000000000e+00   0.000000000000e+00   0.000000000000e+00   0.000000000000e+00 
  0.000000000000e+00   0.000000000000e+00   0.000000000000e+00   0.000000000000e+00   0.000000000000e+00   0.000000000000e+00   0.000000000000e+00   0.000000000000e+00   0.000000000000e+00 
  0.000000000000e+00   0.000000000000e+00   0.000000000000e+00   0.000000000000e+00   0.000000000000e+00   0.000000000000e+00   0.000000000000e+00   0.000000000000e+00   0.000000000000e+00 
  0.000000000000e+00   0.000000000000e+00   0.000000000000e+00   0.000000000000e+00   0.000000000000e+00   0.000000000000e+00   0.000000000000e+00   0.000000000000e+00   0.000000000000e+00 
  0.000000000000e+00   0.000000000000e+00   0.000000000000e+00   0.000000000000e+00   0.000000000000e+00   0.000000000000e+00   0.000000000000e+00   0.000000000000e+00   0.000000000000e+00 
  0.000000000000e+00   0.000000000000e+00   0.000000000000e+00   0.000000000000e+00   0.000000000000e+00   0.000000000000e+00   0.000000000000e+00   0.000000000000e+00   0.000000000000e+00 
  0.000000000000e+00   0.000000000000e+00   0.000000000000e+00   0.000000000000e+00   0.000000000000e+00   0.000000000000e+00   0.000000000000e+00   0.000000000000e+00   0.000000000000e+00 
  0.000000000000e+00   0.000000000000e+00   0.000000000000e+00   0.000000000000e+00   0.000000000000e+00   0.000000000000e+00   0.000000000000e+00   0.000000000000e+00   0.000000000000e+00 
  0.000000000000e+00   0.000000000000e+00   0.000000000000e+00   0.000000000000e+00   0.000000000000e+00   0.000000000000e+00   0.000000000000e+00   0.000000000000e+00   0.000000000000e+00 
  0.000000000000e+00   0.000000000000e+00   0.000000000000e+00   0.000000000000e+00   0.000000000000e+00   0.000000000000e+00   0.000000000000e+00   0.000000000000e+00   0.000000000000e+00 
  0.000000000000e+00   0.000000000000e+00   0.000000000000e+00   0.000000000000e+00   0.000000000000e+00   0.000000000000e+00   0.000000000000e+00   0.000000000000e+00   0.000000000000e+00 
  0.000000000000e+00   0.000000000000e+00   0.000000000000e+00   0.000000000000e+00   0.000000000000e+00   0.000000000000e+00   0.000000000000e+00   0.000000000000e+00   0.000000000000e+00 
  0.000000000000e+00   0.000000000000e+00   0.000000000000e+00   0.000000000000e+00   0.000000000000e+00   0.000000000000e+00   0.000000000000e+00   0.000000000000e+00   0.000000000000e+00 
  0.000000000000e+00   0.000000000000e+00   0.000000000000e+00   0.000000000000e+00   0.000000000000e+00   0.000000000000e+00   0.000000000000e+00   0.000000000000e+00   0.000000000000e+00 
  0.000000000000e+00   0.000000000000e+00   0.000000000000e+00   0.000000000000e+00   0.000000000000e+00   0.000000000000e+00   0.000000000000e+00   0.000000000000e+00   0.000000000000e+00 
  0.000000000000e+00   0.000000000000e+00   0.000000000000e+00   0.000000000000e+00   0.000000000000e+00   0.000000000000e+00   0.000000000000e+00   0.000000000000e+00   0.000000000000e+00 
  0.000000000000e+00   0.000000000000e+00   0.000000000000e+00   0.000000000000e+00   0.000000000000e+00   0.000000000000e+00   0.000000000000e+00   0.000000000000e+00   0.000000000000e+00 
  0.000000000000e+00   0.000000000000e+00   0.000000000000e+00   0.000000000000e+00   0.000000000000e+00   0.000000000000e+00   0.000000000000e+00   0.000000000000e+00   0.000000000000e+00 
  0.000000000000e+00   0.000000000000e+00   0.000000000000e+00   0.000000000000e+00   0.000000000000e+00   0.000000000000e+00   0.000000000000e+00   0.000000000000e+00   0.000000000000e+00 
  0.000000000000e+00   0.000000000000e+00   0.000000000000e+00   0.000000000000e+00   0.000000000000e+00   0.000000000000e+00   0.000000000000e+00   0.000000000000e+00   0.000000000000e+00 
  0.000000000000e+00   0.000000000000e+00   0.000000000000e+00   0.000000000000e+00   0.000000000000e+00   0.000000000000e+00   0.000000000000e+00   0.000000000000e+00   0.000000000000e+00 
  0.000000000000e+00   0.000000000000e+00   0.000000000000e+00   0.000000000000e+00   0.000000000000e+00   0.000000000000e+00   0.000000000000e+00   0.000000000000e+00   0.000000000000e+00 
  0.000000000000e+00   0.000000000000e+00   0.000000000000e+00   0.000000000000e+00   0.000000000000e+00   0.000000000000e+00   0.000000000000e+00   7.025318145752e+00   6.615593910217e+00 
  5.657263755798e+00   4.921051979065e+00   4.734404563904e+00   4.764496803284e+00   4.845453262329e+00   4.878591060638e+00   4.684672832489e+00   4.402740955353e+00   4.095575809479e+00 
  3.837481975555e+00   3.645795822144e+00   3.476061344147e+00   3.386408805847e+00   3.316642045975e+00   3.309087276459e+00   3.279352903366e+00   0.000000000000e+00   0.000000000000e+00 
  5.730094909668e+00   5.519927501678e+00   5.029437065125e+00   4.711878776550e+00   4.655537128448e+00   4.745060443878e+00   4.883093357086e+00   4.945511817932e+00   4.761756896973e+00 
  4.463650703430e+00   4.141790390015e+00   3.861928462982e+00   3.656100749969e+00   3.509975910187e+00   3.409885168076e+00   3.361788988113e+00   3.314313173294e+00   3.275719404221e+00 
  0.000000000000e+00   0.000000000000e+00   4.887902259827e+00   4.831270217896e+00   4.814271450043e+00   4.630604743958e+00   4.641037464142e+00   4.826365947723e+00   5.060313701630e+00 
  5.199423313141e+00   5.022747039795e+00   4.671219825745e+00   4.290084362030e+00   3.982246160507e+00   3.742363214493e+00   3.568006992340e+00   3.450689554214e+00   3.375140190125e+00 
  3.331494331360e+00   3.325165510178e+00   0.000000000000e+00   0.000000000000e+00   4.468133926392e+00   4.698585510254e+00   5.010724544525e+00   4.717843532562e+00   4.765729904175e+00 
  4.987397193909e+00   5.228474140167e+00   5.457059860229e+00   5.274841785431e+00   4.892645835876e+00   4.562358379364e+00   4.114213466644e+00   3.917737960815e+00   3.699729919434e+00 
  3.563945770264e+00   3.549700498581e+00   3.454527616501e+00   3.457183837891e+00   0.000000000000e+00   0.000000000000e+00   4.474270343781e+00   4.556196212769e+00   4.749231815338e+00 
  4.724558830261e+00   4.867330074310e+00   5.163486957550e+00   5.390974998474e+00   5.507958412170e+00   5.506065845490e+00   5.142645835876e+00   4.700767517090e+00   4.321514129639e+00 
  4.066595554352e+00   3.873324155807e+00   3.748831272125e+00   3.672444343567e+00   3.616953372955e+00   3.613737106323e+00   0.000000000000e+00   0.000000000000e+00   4.675510406494e+00 
  4.733376979828e+00   4.813107967377e+00   4.959460258484e+00   5.149776458740e+00   5.415106773376e+00   5.617585182190e+00   5.679322242737e+00   5.657633781433e+00   5.370606899261e+00 
  4.924392700195e+00   4.547869205475e+00   4.268896579742e+00   4.084148406982e+00   3.956121683121e+00   3.881049156189e+00   3.833523511887e+00   3.826582670212e+00   0.000000000000e+00 
  0.000000000000e+00   4.988148212433e+00   5.043184757233e+00   5.136026859283e+00   5.261342048645e+00   5.419674873352e+00   5.587750911713e+00   5.708760738373e+00   5.771658420563e+00 
  5.742575168610e+00   5.539803504944e+00   5.209002017975e+00   4.897383689880e+00   4.654661655426e+00   4.472265720367e+00   4.352314472198e+00   4.269564151764e+00   4.221732139587e+00 
  4.226122379303e+00   0.000000000000e+00   0.000000000000e+00   5.311623096466e+00   5.360456943512e+00   5.440666675568e+00   5.551090240479e+00   5.697713375092e+00   5.844389438629e+00 
  5.925370216370e+00   5.882615566254e+00   5.803816795349e+00   5.595568180084e+00   5.374067783356e+00   5.129522323608e+00   4.915366649628e+00   4.755290985107e+00   4.654242992401e+00 
  4.578401088715e+00   4.531800270081e+00   4.529844284058e+00   0.000000000000e+00   0.000000000000e+00   5.782557487488e+00   5.808811187744e+00   5.868144989014e+00   5.945001602173e+00 
  6.049719333649e+00   6.171531200409e+00   6.230811595917e+00   6.230077266693e+00   6.120454788208e+00   6.095949172974e+00   5.851733684540e+00   5.677819728851e+00   5.501564025879e+00 
  5.361871719360e+00   5.278688907623e+00   5.179837226868e+00   5.132048606873e+00   5.187115669250e+00   0.000000000000e+00   0.000000000000e+00   6.252188205719e+00   6.266009330750e+00 
  6.306996345520e+00   6.373290061951e+00   6.460748672485e+00   6.529942035675e+00   6.582060337067e+00   6.562361240387e+00   6.503936767578e+00   6.341972351074e+00   6.205053329468e+00 
  6.068045139313e+00   5.930838108063e+00   5.785963535309e+00   5.697645664215e+00   5.662094593048e+00   5.602874755859e+00   5.614550113678e+00   0.000000000000e+00   0.000000000000e+00 
  6.809144973755e+00   6.816122055054e+00   6.834404468536e+00   6.873717784882e+00   6.930579185486e+00   6.968057632446e+00   6.984097003937e+00   6.980480194092e+00   6.939636230469e+00 
  6.859298229218e+00   6.751437187195e+00   6.612636566162e+00   6.498677730560e+00   6.411577701569e+00   6.326509952545e+00   6.246653556824e+00   6.207088470459e+00   6.156286239624e+00 
  0.000000000000e+00   0.000000000000e+00   7.291275978088e+00   7.303297996521e+00   7.295417308807e+00   7.351512432098e+00   7.321715354919e+00   7.391480445862e+00   7.397735595703e+00 
  7.335872173309e+00   7.366980552673e+00   7.255962848663e+00   7.171708106995e+00   7.075332164764e+00   6.962998390198e+00   6.850164413452e+00   6.764640808105e+00   6.694602012634e+00 
  6.655833244324e+00   6.626669883728e+00   0.000000000000e+00   0.000000000000e+00   7.715467929840e+00   7.716548919678e+00   7.715004444122e+00   7.719438552856e+00   7.749773025513e+00 
  7.751423835754e+00   7.758939266205e+00   7.747415065765e+00   7.706938266754e+00   7.647404670715e+00   7.576676368713e+00   7.479167461395e+00   7.392193794250e+00   7.315653324127e+00 
  7.232697486877e+00   7.152729511261e+00   7.083677768707e+00   7.051251888275e+00   0.000000000000e+00   0.000000000000e+00   8.073326110840e+00   8.068213462830e+00   8.068320274353e+00 
  8.086094856262e+00   8.106203079224e+00   8.123451232910e+00   8.131031036377e+00   8.133332252502e+00   8.107670783997e+00   8.066668510437e+00   7.996660232544e+00   7.910125255585e+00 
  7.815878391266e+00   7.712390422821e+00   7.626087665558e+00   7.551311492920e+00   7.519165039062e+00   7.441328525543e+00   0.000000000000e+00   0.000000000000e+00   8.274241447449e+00 
  8.253969192505e+00   8.277332305908e+00   8.301688194275e+00   8.329990386963e+00   8.361252784729e+00   8.377283096313e+00   8.373488426208e+00   8.358350753784e+00   8.306808471680e+00 
  8.239194869995e+00   8.157129287720e+00   8.064475059509e+00   7.974521636963e+00   7.895921230316e+00   7.815746784210e+00   7.799525260925e+00   7.668251514435e+00   0.000000000000e+00 
  0.000000000000e+00   8.378817558289e+00   8.391092300415e+00   8.429669380188e+00   8.461976051331e+00   8.505592346191e+00   8.540860176086e+00   8.566855430603e+00   8.574395179749e+00 
  8.558011054993e+00   8.517271041870e+00   8.456185340881e+00   8.375947952271e+00   8.287553787231e+00   8.197027206421e+00   8.110650062561e+00   8.027433395386e+00   7.985363006592e+00 
  7.918685436249e+00   0.000000000000e+00   0.000000000000e+00   8.623084068298e+00   8.541279792786e+00   8.525329589844e+00   8.567359924316e+00   8.617720603943e+00   8.661076545715e+00 
  8.695315361023e+00   8.706810951233e+00   8.698281288147e+00   8.658978462219e+00   8.599019050598e+00   8.525457382202e+00   8.441116333008e+00   8.351673126221e+00   8.261898040771e+00 
  8.180543899536e+00   8.117232322693e+00   8.084299087524e+00   0.000000000000e+00   0.000000000000e+00   8.334109306335e+00   8.405633926392e+00   8.528849601746e+00   8.600522041321e+00 
  8.656506538391e+00   8.704772949219e+00   8.729775428772e+00   8.743608474731e+00   8.729816436768e+00   8.701733589172e+00   8.643674850464e+00   8.570186614990e+00   8.490922927856e+00 
  8.407829284668e+00   8.320286750793e+00   8.240451812744e+00   8.168675422668e+00   8.133468627930e+00   0.000000000000e+00   0.000000000000e+00   0.000000000000e+00   0.000000000000e+00 
  0.000000000000e+00   0.000000000000e+00   0.000000000000e+00   0.000000000000e+00   0.000000000000e+00   0.000000000000e+00   0.000000000000e+00   0.000000000000e+00   0.000000000000e+00 
  0.000000000000e+00   0.000000000000e+00   0.000000000000e+00   0.000000000000e+00   0.000000000000e+00   0.000000000000e+00   0.000000000000e+00   0.000000000000e+00   0.000000000000e+00 
  0.000000000000e+00   0.000000000000e+00   0.000000000000e+00   0.000000000000e+00   0.000000000000e+00   0.000000000000e+00   0.000000000000e+00   0.000000000000e+00   0.000000000000e+00 
  0.000000000000e+00   0.000000000000e+00   0.000000000000e+00   0.000000000000e+00   0.000000000000e+00   0.000000000000e+00   0.000000000000e+00   0.000000000000e+00   0.000000000000e+00 
  0.000000000000e+00   0.000000000000e+00   4.669376373291e+00   4.436254024506e+00   3.933870077133e+00   3.545419931412e+00   3.454336881638e+00   3.565934658051e+00   3.737608432770e+00 
  3.838690996170e+00   3.612343311310e+00   3.279408454895e+00   2.940409660339e+00   2.697117805481e+00   2.526005506516e+00   2.395325660706e+00   2.306478023529e+00   2.283390522003e+00 
  2.240914106369e+00   2.230730533600e+00   0.000000000000e+00   0.000000000000e+00   3.872033596039e+00   3.765616893768e+00   3.524754524231e+00   3.378639459610e+00   3.399825096130e+00 
  3.568670749664e+00   3.856794595718e+00   4.107873916626e+00   3.716828823090e+00   3.324347734451e+00   2.978404760361e+00   2.685098886490e+00   2.505175590515e+00   2.388398647308e+00 
  2.326178073883e+00   2.349647760391e+00   2.230460643768e+00   2.194177389145e+00   0.000000000000e+00   0.000000000000e+00   3.457693576813e+00   3.413793563843e+00   3.372102499008e+00 
  3.320594787598e+00   3.415129899979e+00   3.693812370300e+00   4.195514678955e+00   4.547599315643e+00   4.141485691071e+00   3.607649803162e+00   3.127654075623e+00   2.808372259140e+00 
  2.591619968414e+00   2.444678783417e+00   2.349180936813e+00   2.302431344986e+00   2.254485368729e+00   2.233105659485e+00   0.000000000000e+00   0.000000000000e+00   3.173474311829e+00 
  3.222243070602e+00   3.367816209793e+00   3.342362880707e+00   3.506725311279e+00   3.879308462143e+00   4.441917419434e+00   4.815348148346e+00   4.692604064941e+00   3.925656318665e+00 
  3.347374677658e+00   2.956304550171e+00   2.732916355133e+00   2.584345579147e+00   2.499537229538e+00   2.434186697006e+00   2.403236627579e+00   2.393678188324e+00   0.000000000000e+00 
  0.000000000000e+00   3.258010625839e+00   3.288739204407e+00   3.393658638000e+00   3.486379384995e+00   3.759770154953e+00   4.431147575378e+00   4.743086814880e+00   4.730337142944e+00 
  4.908709049225e+00   4.213725566864e+00   3.570059061050e+00   3.154271364212e+00   2.879295825958e+00   2.707927465439e+00   2.612982988358e+00   2.533297538757e+00   2.504270315170e+00 
  2.492027997971e+00   0.000000000000e+00   0.000000000000e+00   3.477407693863e+00   3.567549943924e+00   3.678477764130e+00   3.836877346039e+00   4.024257183075e+00   4.578517436981e+00 
  4.743632793427e+00   4.779388904572e+00   4.961476325989e+00   4.585910797119e+00   3.879780530930e+00   3.407808542252e+00   3.120411396027e+00   2.939218759537e+00   2.822258472443e+00 
  2.758917570114e+00   2.718978166580e+00   2.708262681961e+00   0.000000000000e+00   0.000000000000e+00   3.801432609558e+00   3.862994909286e+00   3.938881158829e+00   4.053199291229e+00 
  4.237362384796e+00   4.585405826569e+00   4.642502307892e+00   4.676612377167e+00   4.633961200714e+00   4.392149448395e+00   3.985443830490e+00   3.617255926132e+00   3.376177787781e+00 
  3.208712577820e+00   3.094175815582e+00   3.036402940750e+00   3.006417512894e+00   3.006108045578e+00   0.000000000000e+00   0.000000000000e+00   4.224689483643e+00   4.252872467041e+00 
  4.321572303772e+00   4.428042411804e+00   4.596176147461e+00   4.991312503815e+00   4.951658725739e+00   4.858840942383e+00   4.797858715057e+00   4.556328773499e+00   4.351435661316e+00 
  4.024873733521e+00   3.801999092102e+00   3.651133060455e+00   3.550215482712e+00   3.490588188171e+00   3.448411703110e+00   3.439227819443e+00   0.000000000000e+00   0.000000000000e+00 
  4.675717830658e+00   4.689221858978e+00   4.737930774689e+00   4.831571578979e+00   4.966349601746e+00   5.193004131317e+00   5.247061252594e+00   5.195859432220e+00   5.114652633667e+00 
  4.905553340912e+00   4.712861537933e+00   4.495571613312e+00   4.317319869995e+00   4.169812679291e+00   4.081407546997e+00   4.031655311584e+00   3.986150979996e+00   4.010436058044e+00 
  0.000000000000e+00   0.000000000000e+00   5.218353271484e+00   5.207489967346e+00   5.247838020325e+00   5.325866699219e+00   5.438688278198e+00   5.537471771240e+00   5.563141822815e+00 
  5.568994522095e+00   5.575028419495e+00   5.391653537750e+00   5.265598773956e+00   5.087921619415e+00   5.025480747223e+00   4.815368652344e+00   4.722476482391e+00   4.713953495026e+00 
  4.643873214722e+00   4.674330234528e+00   0.000000000000e+00   0.000000000000e+00   5.835568904877e+00   5.805581569672e+00   5.828443527222e+00   5.884479999542e+00   5.966749668121e+00 
  6.018615245819e+00   6.025547027588e+00   6.021728992462e+00   6.008786201477e+00   5.912882328033e+00   5.782212734222e+00   5.618131637573e+00   5.503161907196e+00   5.387439727783e+00 
  5.307130813599e+00   5.233094215393e+00   5.178278923035e+00   5.163572311401e+00   0.000000000000e+00   0.000000000000e+00   6.364680290222e+00   6.340941429138e+00   6.318995952606e+00 
  6.340157508850e+00   6.392651081085e+00   6.425046443939e+00   6.422275543213e+00   6.408388614655e+00   6.385488033295e+00   6.323559761047e+00   6.229912281036e+00   6.131608486176e+00 
  6.039813518524e+00   5.932627677917e+00   5.837654113770e+00   5.767655849457e+00   5.711809158325e+00   5.708445072174e+00   0.000000000000e+00   0.000000000000e+00   6.889828205109e+00 
  6.844555377960e+00   6.817340850830e+00   6.787181377411e+00   6.840171337128e+00   6.823714256287e+00   6.828796863556e+00   6.829213619232e+00   6.833666801453e+00   6.747762203217e+00 
  6.671846389771e+00   6.573814392090e+00   6.470687389374e+00   6.373367309570e+00   6.280869960785e+00   6.205185890198e+00   6.143948078156e+00   6.114216327667e+00   0.000000000000e+00 
  0.000000000000e+00   7.178401470184e+00   7.159321308136e+00   7.141187667847e+00   7.148689746857e+00   7.179224014282e+00   7.197274684906e+00   7.209019184113e+00   7.207737445831e+00 
  7.202519416809e+00   7.154527664185e+00   7.079069137573e+00   6.985261440277e+00   6.891295909882e+00   6.789731025696e+00   6.696195602417e+00   6.618293762207e+00   6.563484191895e+00 
  6.509082317352e+00   0.000000000000e+00   0.000000000000e+00   7.337428569794e+00   7.322261333466e+00   7.345426559448e+00   7.369782447815e+00   7.406070709229e+00   7.442238330841e+00 
  7.466447353363e+00   7.476620674133e+00   7.462680816650e+00   7.411865234375e+00   7.336402893066e+00   7.244911193848e+00   7.148488998413e+00   7.053421497345e+00   6.965947628021e+00 
  6.877193450928e+00   6.845774650574e+00   6.706107616425e+00   0.000000000000e+00   0.000000000000e+00   7.433515548706e+00   7.450262069702e+00   7.483929157257e+00   7.522325038910e+00 
  7.575540065765e+00   7.621509552002e+00   7.655794620514e+00   7.669413566589e+00   7.657525539398e+00   7.613109111786e+00   7.544337272644e+00   7.457660198212e+00   7.363175392151e+00 
  7.266264438629e+00   7.172384738922e+00   7.082318782806e+00   7.040907859802e+00   6.927341461182e+00   0.000000000000e+00   0.000000000000e+00   7.565443038940e+00   7.552262306213e+00 
  7.560790061951e+00   7.618711948395e+00   7.680447101593e+00   7.737385749817e+00   7.781946659088e+00   7.800914287567e+00   7.787872314453e+00   7.747334957123e+00   7.684100151062e+00 
  7.604173660278e+00   7.518473625183e+00   7.419498920441e+00   7.323395729065e+00   7.231071949005e+00   7.158968925476e+00   7.125380039215e+00   0.000000000000e+00   0.000000000000e+00 
  7.406392097473e+00   7.461233139038e+00   7.573662757874e+00   7.643862247467e+00   7.708326816559e+00   7.763574600220e+00   7.804029464722e+00   7.828361511230e+00   7.827915191650e+00 
  7.796031951904e+00   7.734629154205e+00   7.659824371338e+00   7.565401554108e+00   7.477265834808e+00   7.382195472717e+00   7.296801567078e+00   7.218285560608e+00   7.177815437317e+00 
  0.000000000000e+00   0.000000000000e+00   0.000000000000e+00   0.000000000000e+00   0.000000000000e+00   0.000000000000e+00   0.000000000000e+00   0.000000000000e+00   0.000000000000e+00 
  0.000000000000e+00   0.000000000000e+00   0.000000000000e+00   0.000000000000e+00   0.000000000000e+00   0.000000000000e+00   0.000000000000e+00   0.000000000000e+00   0.000000000000e+00 
  0.000000000000e+00   0.000000000000e+00   0.000000000000e+00   0.000000000000e+00   0.000000000000e+00   0.000000000000e+00   0.000000000000e+00   0.000000000000e+00   0.000000000000e+00 
  0.000000000000e+00   0.000000000000e+00   0.000000000000e+00   0.000000000000e+00   0.000000000000e+00   0.000000000000e+00   0.000000000000e+00   0.000000000000e+00   0.000000000000e+00 
  0.000000000000e+00   0.000000000000e+00   0.000000000000e+00   0.000000000000e+00   0.000000000000e+00   0.000000000000e+00   2.282585620880e+00   2.193069458008e+00   2.035132408142e+00 
  1.957902193069e+00   2.084928750992e+00   2.311913728714e+00   2.568310737610e+00   2.682881832123e+00   2.415865182877e+00   2.047199249268e+00   1.707703709602e+00   1.473097681999e+00 
  1.340975880623e+00   1.248945355415e+00   1.177016496658e+00   1.226283907890e+00   1.115617513657e+00   1.163371205330e+00   0.000000000000e+00   0.000000000000e+00   2.063000917435e+00 
  1.976320981979e+00   1.880625844002e+00   2.002521991730e+00   2.342430591583e+00   2.642091274261e+00   3.075432777405e+00   4.110984325409e+00   2.835198640823e+00   2.326877832413e+00 
  1.962317228317e+00   1.581536531448e+00   1.405825018883e+00   1.305368542671e+00   1.304627299309e+00   1.496637940407e+00   1.235902547836e+00   1.289669632912e+00   0.000000000000e+00 
  0.000000000000e+00   1.813439726830e+00   1.793189167976e+00   1.818589806557e+00   1.905986547470e+00   2.139825820923e+00   2.400699377060e+00   3.545295238495e+00   4.967457771301e+00 
  3.390460491180e+00   2.503680944443e+00   1.909776687622e+00   1.575820922852e+00   1.407226324081e+00   1.284911990166e+00   1.208570480347e+00   1.237890124321e+00   1.157009243965e+00 
  1.182383537292e+00   0.000000000000e+00   0.000000000000e+00   1.773370504379e+00   1.796699762344e+00   1.870838761330e+00   1.973020434380e+00   2.200027704239e+00   2.470511913300e+00 
  3.972363471985e+00   5.191208362579e+00   5.369253635406e+00   3.048488140106e+00   2.133594989777e+00   1.711424231529e+00   1.500796437263e+00   1.389111638069e+00   1.329020977020e+00 
  1.293800711632e+00   1.278683900833e+00   1.255172967911e+00   0.000000000000e+00   0.000000000000e+00   1.817224740982e+00   1.880916118622e+00   1.968536853790e+00   2.107850074768e+00 
  2.249009370804e+00   2.369971513748e+00   3.709842681885e+00   3.716955184937e+00   5.507219314575e+00   3.312021970749e+00   2.287600994110e+00   1.796395897865e+00   1.553343296051e+00 
  1.420663475990e+00   1.346756577492e+00   1.308277606964e+00   1.280558347702e+00   1.258947968483e+00   0.000000000000e+00   0.000000000000e+00   2.111120462418e+00   2.342558383942e+00 
  2.418888568878e+00   2.613115787506e+00   2.420711994171e+00   3.367861986160e+00   3.909041881561e+00   3.651133060455e+00   5.092729568481e+00   4.570523262024e+00   2.716961383820e+00 
  2.053729057312e+00   1.783014655113e+00   1.644413590431e+00   1.560080885887e+00   1.514479041100e+00   1.482297062874e+00   1.458867549896e+00   0.000000000000e+00   0.000000000000e+00 