# vtk DataFile Version 2.0
Written using VisIt writer
ASCII
DATASET RECTILINEAR_GRID
DIMENSIONS 20 20 20
X_COORDINATES 20 float
  0.000000000000e+00   1.000000000000e+00   2.000000000000e+00   3.000000000000e+00   4.000000000000e+00   5.000000000000e+00   6.000000000000e+00   7.000000000000e+00   8.000000000000e+00 
  9.000000000000e+00   1.000000000000e+01   1.100000000000e+01   1.200000000000e+01   1.300000000000e+01   1.400000000000e+01   1.500000000000e+01   1.600000000000e+01   1.700000000000e+01 
  1.800000000000e+01   1.900000000000e+01 
Y_COORDINATES 20 float
  0.000000000000e+00   1.000000000000e+00   2.000000000000e+00   3.000000000000e+00   4.000000000000e+00   5.000000000000e+00   6.000000000000e+00   7.000000000000e+00   8.000000000000e+00 
  9.000000000000e+00   1.000000000000e+01   1.100000000000e+01   1.200000000000e+01   1.300000000000e+01   1.400000000000e+01   1.500000000000e+01   1.600000000000e+01   1.700000000000e+01 
  1.800000000000e+01   1.900000000000e+01 
Z_COORDINATES 20 float
  0.000000000000e+00   1.000000000000e+00   2.000000000000e+00   3.000000000000e+00   4.000000000000e+00   5.000000000000e+00   6.000000000000e+00   7.000000000000e+00   8.000000000000e+00 
  9.000000000000e+00   1.000000000000e+01   1.100000000000e+01   1.200000000000e+01   1.300000000000e+01   1.400000000000e+01   1.500000000000e+01   1.600000000000e+01   1.700000000000e+01 
  1.800000000000e+01   1.900000000000e+01 
CELL_DATA 6859
POINT_DATA 8000
SCALARS pressure float
LOOKUP_TABLE default
  0.000000000000e+00   0.000000000000e+00   0.000000000000e+00   0.000000000000e+00   0.000000000000e+00   0.000000000000e+00   0.000000000000e+00   0.000000000000e+00   0.000000000000e+00 
  0.000000000000e+00   0.000000000000e+00   0.000000000000e+00   0.000000000000e+00   0.000000000000e+00   0.000000000000e+00   0.000000000000e+00   0.000000000000e+00   0.000000000000e+00 
  0.000000000000e+00   0.000000000000e+00   0.000000000000e+00   0.000000000000e+00   0.000000000000e+00   0.000000000000e+00   0.000000000000e+00   0.000000000000e+00   0.000000000000e+00 
  0.000000000000e+00   0.000000000000e+00   0.000000000000e+00   0.000000000000e+00   0.000000000000e+00   0.000000000000e+00   0.000000000000e+00   0.000000000000e+00   0.000000000000e+00 
  0.000000000000e+00   0.000000000000e+00   0.000000000000e+00   0.000000000000e+00   0.000000000000e+00   0.000000000000e+00   0.000000000000e+00   0.000000000000e+00   0.000000000000e+00 
  0.000000000000e+00   0.000000000000e+00   0.000000000000e+00   0.000000000000e+00   0.000000000000e+00   0.000000000000e+00   0.000000000000e+00   0.000000000000e+00   0.000000000000e+00 
  0.000000000000e+00   0.000000000000e+00   0.000000000000e+00   0.000000000000e+00   0.000000000000e+00   0.000000000000e+00   0.000000000000e+00   0.000000000000e+00   0.000000000000e+00 
  0.000000000000e+00   0.000000000000e+00   0.000000000000e+00   0.000000000000e+00   0.000000000000e+00   0.000000000000e+00   0.000000000000e+00   0.000000000000e+00   0.000000000000e+00 
  0.000000000000e+00   0.000000000000e+00   0.000000000000e+00   0.000000000000e+00   0.000000000000e+00   0.000000000000e+00   0.000000000000e+00   0.000000000000e+00   0.000000000000e+00 
  0.000000000000e+00   0.000000000000e+00   0.000000000000e+00   0.000000000000e+00   0.000000000000e+00   0.000000000000e+00   0.000000000000e+00   0.000000000000e+00   0.000000000000e+00 
  0.000000000000e+00   0.000000000000e+00   0.000000000000e+00   0.000000000000e+00   0.000000000000e+00   0.000000000000e+00   0.000000000000e+00   0.000000000000e+00   0.000000000000e+00 
  0.000000000000e+00   0.000000000000e+00   0.000000000000e+00   0.000000000000e+00   0.000000000000e+00   0.000000000000e+00   0.000000000000e+00   0.000000000000e+00   0.000000000000e+00 
  0.000000000000e+00   0.000000000000e+00   0.000000000000e+00   0.000000000000e+00   0.000000000000e+00   0.000000000000e+00   0.000000000000e+00   0.000000000000e+00   0.000000000000e+00 
  0.000000000000e+00   0.000000000000e+00   0.000000000000e+00   0.000000000000e+00   0.000000000000e+00   0.000000000000e+00   0.000000000000e+00   0.000000000000e+00   0.000000000000e+00 
  0.000000000000e+00   0.000000000000e+00   0.000000000000e+00   0.000000000000e+00   0.000000000000e+00   0.000000000000e+00   0.000000000000e+00   0.000000000000e+00   0.000000000000e+00 
  0.000000000000e+00   0.000000000000e+00   0.000000000000e+00   0.000000000000e+00   0.000000000000e+00   0.000000000000e+00   0.000000000000e+00   0.000000000000e+00   0.000000000000e+00 
  0.000000000000e+00   0.000000000000e+00   0.000000000000e+00   0.000000000000e+00   0.000000000000e+00   0.000000000000e+00   0.000000000000e+00   0.000000000000e+00   0.000000000000e+00 
  0.000000000000e+00   0.000000000000e+00   0.000000000000e+00   0.000000000000e+00   0.000000000000e+00   0.000000000000e+00   0.000000000000e+00   0.000000000000e+00   0.000000000000e+00 
  0.000000000000e+00   0.000000000000e+00   0.000000000000e+00   0.000000000000e+00   0.000000000000e+00   0.000000000000e+00   0.000000000000e+00   0.000000000000e+00   0.000000000000e+00 
  0.000000000000e+00   0.000000000000e+00   0.000000000000e+00   0.000000000000e+00   0.000000000000e+00   0.000000000000e+00   0.000000000000e+00   0.000000000000e+00   0.000000000000e+00 
  0.000000000000e+00   0.000000000000e+00   0.000000000000e+00   0.000000000000e+00   0.000000000000e+00   0.000000000000e+00   0.000000000000e+00   0.000000000000e+00   0.000000000000e+00 
  0.000000000000e+00   0.000000000000e+00   0.000000000000e+00   0.000000000000e+00   0.000000000000e+00   0.000000000000e+00   0.000000000000e+00   0.000000000000e+00   0.000000000000e+00 
  0.000000000000e+00   0.000000000000e+00   0.000000000000e+00   0.000000000000e+00   0.000000000000e+00   0.000000000000e+00   0.000000000000e+00   0.000000000000e+00   0.000000000000e+00 
  0.000000000000e+00   0.000000000000e+00   0.000000000000e+00   0.000000000000e+00   0.000000000000e+00   0.000000000000e+00   0.000000000000e+00   0.000000000000e+00   0.000000000000e+00 
  0.000000000000e+00   0.000000000000e+00   0.000000000000e+00   0.000000000000e+00   0.000000000000e+00   0.000000000000e+00   0.000000000000e+00   0.000000000000e+00   0.000000000000e+00 
  0.000000000000e+00   0.000000000000e+00   0.000000000000e+00   0.000000000000e+00   0.000000000000e+00   0.000000000000e+00   0.000000000000e+00   0.000000000000e+00   0.000000000000e+00 
  0.000000000000e+00   0.000000000000e+00   0.000000000000e+00   0.000000000000e+00   0.000000000000e+00   0.000000000000e+00   0.000000000000e+00   0.000000000000e+00   0.000000000000e+00 
  0.000000000000e+00   0.000000000000e+00   0.000000000000e+00   0.000000000000e+00   0.000000000000e+00   0.000000000000e+00   0.000000000000e+00   0.000000000000e+00   0.000000000000e+00 
  0.000000000000e+00   0.000000000000e+00   0.000000000000e+00   0.000000000000e+00   0.000000000000e+00   0.000000000000e+00   0.000000000000e+00   0.000000000000e+00   0.000000000000e+00 
  0.000000000000e+00   0.000000000000e+00   0.000000000000e+00   0.000000000000e+00   0.000000000000e+00   0.000000000000e+00   0.000000000000e+00   0.000000000000e+00   0.000000000000e+00 
  0.000000000000e+00   0.000000000000e+00   0.000000000000e+00   0.000000000000e+00   0.000000000000e+00   0.000000000000e+00   0.000000000000e+00   0.000000000000e+00   0.000000000000e+00 
  0.000000000000e+00   0.000000000000e+00   0.000000000000e+00   0.000000000000e+00   0.000000000000e+00   0.000000000000e+00   0.000000000000e+00   0.000000000000e+00   0.000000000000e+00 
  0.000000000000e+00   0.000000000000e+00   0.000000000000e+00   0.000000000000e+00   0.000000000000e+00   0.000000000000e+00   0.000000000000e+00   0.000000000000e+00   0.000000000000e+00 
  0.000000000000e+00   0.000000000000e+00   0.000000000000e+00   0.000000000000e+00   0.000000000000e+00   0.000000000000e+00   0.000000000000e+00   0.000000000000e+00   0.000000000000e+00 
  0.000000000000e+00   0.000000000000e+00   0.000000000000e+00   0.000000000000e+00   0.000000000000e+00   0.000000000000e+00   0.000000000000e+00   0.000000000000e+00   0.000000000000e+00 
  0.000000000000e+00   0.000000000000e+00   0.000000000000e+00   0.000000000000e+00   0.000000000000e+00   0.000000000000e+00   0.000000000000e+00   0.000000000000e+00   0.000000000000e+00 
  0.000000000000e+00   0.000000000000e+00   0.000000000000e+00   0.000000000000e+00   0.000000000000e+00   0.000000000000e+00   0.000000000000e+00   0.000000000000e+00   0.000000000000e+00 
  0.000000000000e+00   0.000000000000e+00   0.000000000000e+00   0.000000000000e+00   0.000000000000e+00   0.000000000000e+00   0.000000000000e+00   0.000000000000e+00   0.000000000000e+00 
  0.000000000000e+00   0.000000000000e+00   0.000000000000e+00   0.000000000000e+00   0.000000000000e+00   0.000000000000e+00   0.000000000000e+00   0.000000000000e+00   0.000000000000e+00 
  0.000000000000e+00   0.000000000000e+00   0.000000000000e+00   0.000000000000e+00   0.000000000000e+00   0.000000000000e+00   0.000000000000e+00   0.000000000000e+00   0.000000000000e+00 
  0.000000000000e+00   0.000000000000e+00   0.000000000000e+00   0.000000000000e+00   0.000000000000e+00   0.000000000000e+00   0.000000000000e+00   0.000000000000e+00   0.000000000000e+00 
  0.000000000000e+00   0.000000000000e+00   0.000000000000e+00   0.000000000000e+00   0.000000000000e+00   0.000000000000e+00   0.000000000000e+00   0.000000000000e+00   0.000000000000e+00 
  0.000000000000e+00   0.000000000000e+00   0.000000000000e+00   0.000000000000e+00   0.000000000000e+00   0.000000000000e+00   0.000000000000e+00   0.000000000000e+00   0.000000000000e+00 
  0.000000000000e+00   0.000000000000e+00   0.000000000000e+00   0.000000000000e+00   0.000000000000e+00   0.000000000000e+00   0.000000000000e+00   0.000000000000e+00   0.000000000000e+00 
  0.000000000000e+00   0.000000000000e+00   0.000000000000e+00   0.000000000000e+00   0.000000000000e+00   0.000000000000e+00   0.000000000000e+00   0.000000000000e+00   0.000000000000e+00 
  0.000000000000e+00   0.000000000000e+00   0.000000000000e+00   0.000000000000e+00   0.000000000000e+00   0.000000000000e+00   0.000000000000e+00   0.000000000000e+00   0.000000000000e+00 
  0.000000000000e+00   0.000000000000e+00   0.000000000000e+00   0.000000000000e+00   0.000000000000e+00   0.000000000000e+00   0.000000000000e+00   7.123321056366e+00   7.109124183655e+00 
  7.065557479858e+00   7.025544166565e+00   6.973028659821e+00   6.933287143707e+00   6.902007102966e+00   6.955285072327e+00   7.059184551239e+00   7.175911903381e+00   7.285838127136e+00 
  7.386096954346e+00   7.473531246185e+00   7.535580635071e+00   7.542986869812e+00   7.574368476868e+00   7.570740699768e+00   7.589463233948e+00   0.000000000000e+00   0.000000000000e+00 
  7.017592906952e+00   6.982286453247e+00   6.943802833557e+00   6.877147674561e+00   6.799778938293e+00   6.714226245880e+00   6.671016216278e+00   6.760439395905e+00   6.920264244080e+00 
  7.057916641235e+00   7.171409130096e+00   7.306300640106e+00   7.408497333527e+00   7.458925247192e+00   7.529195785522e+00   7.536897659302e+00   7.536069869995e+00   7.567318916321e+00 
  0.000000000000e+00   0.000000000000e+00   6.828636646271e+00   6.807770729065e+00   6.732732772827e+00   6.643187999725e+00   6.548540592194e+00   6.435923576355e+00   6.227398395538e+00 
  6.446035861969e+00   6.627871513367e+00   6.823056697845e+00   7.017342090607e+00   7.147162914276e+00   7.255607604980e+00   7.331591129303e+00   7.329608440399e+00   7.319442749023e+00 
  7.273138523102e+00   7.323398113251e+00   0.000000000000e+00   0.000000000000e+00   6.604705333710e+00   6.558240890503e+00   6.479921817780e+00   6.342810630798e+00   6.120720386505e+00 
  5.743006229401e+00   4.968229770660e+00   5.814233779907e+00   6.278189659119e+00   6.559181690216e+00   6.725790500641e+00   6.867757320404e+00   6.999739646912e+00   7.075566291809e+00 
  7.127496242523e+00   7.111763000488e+00   7.069887161255e+00   7.146408081055e+00   0.000000000000e+00   0.000000000000e+00   6.320726871490e+00   6.286489486694e+00   6.199353218079e+00 
  6.037113189697e+00   5.857968807220e+00   5.661794662476e+00   5.404521465302e+00   5.800038814545e+00   6.039084434509e+00   6.295756340027e+00   6.511016368866e+00   6.666391849518e+00 
  6.777827739716e+00   6.876802444458e+00   6.911440849304e+00   6.951601505280e+00   6.933307647705e+00   6.982242584229e+00   0.000000000000e+00   0.000000000000e+00   6.016201496124e+00 
  5.960943698883e+00   5.856458663940e+00   5.692936897278e+00   5.506438255310e+00   5.296053886414e+00   5.326237678528e+00   5.543517589569e+00   5.740076541901e+00   5.921124935150e+00 
  6.102754116058e+00   6.353548526764e+00   6.577126026154e+00   6.703860282898e+00   6.728701591492e+00   6.737901210785e+00   6.705846309662e+00   6.712716579437e+00   0.000000000000e+00 
  0.000000000000e+00   5.841550827026e+00   5.816342353821e+00   5.748494625092e+00   5.615048408508e+00   5.454319000244e+00   5.324874401093e+00   5.311287403107e+00   5.472357749939e+00 
  5.597559928894e+00   5.786531925201e+00   5.856801033020e+00   6.005196094513e+00   6.267495632172e+00   6.466810226440e+00   6.494858264923e+00   6.422399997711e+00   6.302737236023e+00 
  6.299994468689e+00   0.000000000000e+00   0.000000000000e+00   5.617228507996e+00   5.587038040161e+00   5.510643005371e+00   5.428615570068e+00   5.342651367188e+00   5.249755859375e+00 
  5.244976043701e+00   5.286722660065e+00   5.378041267395e+00   5.448890686035e+00   5.569943428040e+00   5.726564884186e+00   5.888361454010e+00   6.116127490997e+00   6.196862220764e+00 
  6.170040130615e+00   5.971513271332e+00   5.932318210602e+00   0.000000000000e+00   0.000000000000e+00   5.352747917175e+00   5.326797008514e+00   5.260855674744e+00   5.170940876007e+00 
  5.117137432098e+00   5.092561244965e+00   5.055963993073e+00   5.094144821167e+00   5.126503467560e+00   5.228435039520e+00   5.304371356964e+00   5.427862167358e+00   5.604958534241e+00 
  5.823099613190e+00   5.968785285950e+00   5.849184989929e+00   5.462872982025e+00   5.203434467316e+00   0.000000000000e+00   0.000000000000e+00   5.159664630890e+00   5.117333889008e+00 
  5.039642810822e+00   5.222730159760e+00   5.021672725677e+00   5.005525112152e+00   4.972251892090e+00   5.009804725647e+00   5.018018722534e+00   5.255307674408e+00   5.172202110291e+00 
  5.167864799500e+00   5.300635337830e+00   5.441735267639e+00   5.483810901642e+00   5.306739807129e+00   4.979279994965e+00   4.678329944611e+00   0.000000000000e+00   0.000000000000e+00 
  4.922764301300e+00   4.895529270172e+00   4.887005805969e+00   5.037536144257e+00   4.723233222961e+00   4.671969413757e+00   4.703457355499e+00   4.867024421692e+00   4.870610237122e+00 
  5.250134468079e+00   4.894253730774e+00   4.875367641449e+00   4.953763484955e+00   4.964835166931e+00   4.918938636780e+00   4.617316722870e+00   4.481000900269e+00   4.325016498566e+00 
  0.000000000000e+00   0.000000000000e+00   4.792046546936e+00   4.798055171967e+00   4.701982021332e+00   4.659098148346e+00   4.555920600891e+00   4.447516918182e+00   4.505698204041e+00 
  4.404404640198e+00   4.274639129639e+00   4.416427612305e+00   4.564542293549e+00   4.573820114136e+00   4.710948944092e+00   4.685910701752e+00   4.583286762238e+00   4.363939762115e+00 
  4.194384098053e+00   4.145588874817e+00   0.000000000000e+00   0.000000000000e+00   4.613369941711e+00   4.591219902039e+00   4.665760040283e+00   4.669811725616e+00   4.712936878204e+00 
  4.360743045807e+00   5.166256904602e+00   4.606209754944e+00   4.217404365540e+00   3.710458755493e+00   4.318017482758e+00   4.258963584900e+00   4.388117313385e+00   4.409583568573e+00 
  4.252983570099e+00   4.114467620850e+00   3.926405906677e+00   3.860952854156e+00   0.000000000000e+00   0.000000000000e+00   4.408533573151e+00   4.462294578552e+00   4.511869907379e+00 
  4.469457149506e+00   4.295126914978e+00   3.682752132416e+00   5.615011215210e+00   4.699808597565e+00   3.621817111969e+00   5.969133377075e+00   3.425610780716e+00   4.004330158234e+00 
  4.163888931274e+00   4.114282608032e+00   4.101619243622e+00   3.937905311584e+00   3.722798824310e+00   3.327759027481e+00   0.000000000000e+00   0.000000000000e+00   4.221232414246e+00 
  4.168602943420e+00   4.278496742249e+00   4.446497440338e+00   4.464482784271e+00   4.432967185974e+00   5.331287860870e+00   4.027999401093e+00   3.139211654663e+00   2.861372470856e+00 
  3.573818922043e+00   3.942355155945e+00   4.039371013641e+00   4.034272670746e+00   3.951979398727e+00   3.924975395203e+00   3.792676687241e+00   3.697637081146e+00   0.000000000000e+00 
  0.000000000000e+00   3.617430925369e+00   3.684567213058e+00   3.979698181152e+00   4.296486377716e+00   4.532642841339e+00   4.764326572418e+00   5.025308132172e+00   4.317769050598e+00 
  3.618253469467e+00   3.371338605881e+00   3.469078063965e+00   3.813837289810e+00   3.780797481537e+00   3.542921304703e+00   3.588286876678e+00   3.677829742432e+00   3.642967939377e+00 
  3.701319217682e+00   0.000000000000e+00   0.000000000000e+00   2.998289346695e+00   2.755427837372e+00   3.465710163116e+00   4.073475360870e+00   4.459051609039e+00   4.829889297485e+00 
  5.247563838959e+00   5.570827007294e+00   4.347049236298e+00   3.349208354950e+00   3.016244173050e+00   4.135342121124e+00   3.424664735794e+00   2.641437768936e+00   3.065163612366e+00 
  3.492173194885e+00   3.680212259293e+00   3.832857370377e+00   0.000000000000e+00   0.000000000000e+00   1.877216339111e+00   5.807038784027e+00   2.621644258499e+00   3.838089942932e+00 
  4.363874912262e+00   5.024168968201e+00   5.688610076904e+00   6.361572265625e+00   4.835237979889e+00   3.129909992218e+00   5.360845088959e+00   4.461076736450e+00   3.289940357208e+00 
  3.491034984589e+00   2.240610122681e+00   3.106351613998e+00   3.487777233124e+00   3.784199714661e+00   0.000000000000e+00   0.000000000000e+00   0.000000000000e+00   0.000000000000e+00 
  0.000000000000e+00   0.000000000000e+00   0.000000000000e+00   0.000000000000e+00   0.000000000000e+00   0.000000000000e+00   0.000000000000e+00   0.000000000000e+00   0.000000000000e+00 
  0.000000000000e+00   0.000000000000e+00   0.000000000000e+00   0.000000000000e+00   0.000000000000e+00   0.000000000000e+00   0.000000000000e+00   0.000000000000e+00   0.000000000000e+00 
  0.000000000000e+00   0.000000000000e+00   0.000000000000e+00   0.000000000000e+00   0.000000000000e+00   0.000000000000e+00   0.000000000000e+00   0.000000000000e+00   0.000000000000e+00 
  0.000000000000e+00   0.000000000000e+00   0.000000000000e+00   0.000000000000e+00   0.000000000000e+00   0.000000000000e+00   0.000000000000e+00   0.000000000000e+00   0.000000000000e+00 
  0.000000000000e+00   0.000000000000e+00   6.181192398071e+00   6.167017936707e+00   6.143555164337e+00   6.092376232147e+00   6.054733276367e+00   6.023251533508e+00   6.016363143921e+00 
  6.074102878571e+00   6.162594318390e+00   6.255895614624e+00   6.352493286133e+00   6.430090904236e+00   6.496973514557e+00   6.531285285950e+00   6.554230213165e+00   6.558592319489e+00 
  6.557659149170e+00   6.574080944061e+00   0.000000000000e+00   0.000000000000e+00   6.069837093353e+00   6.051853656769e+00   6.016326427460e+00   5.971645832062e+00   5.893758296967e+00 
  5.796319484711e+00   5.731572151184e+00   5.861632347107e+00   6.016571044922e+00   6.150405406952e+00   6.250953197479e+00   6.362370967865e+00   6.455414295197e+00   6.503062248230e+00 
  6.523378372192e+00   6.523121833801e+00   6.506426811218e+00   6.548716545105e+00   0.000000000000e+00   0.000000000000e+00   5.856514453888e+00   5.834151268005e+00   5.780136585236e+00 
  5.684115886688e+00   5.602541923523e+00   5.457032680511e+00   4.835783958435e+00   5.411779880524e+00   5.665558338165e+00   5.862942695618e+00   6.043364048004e+00   6.182589530945e+00 
  6.299327373505e+00   6.374300003052e+00   6.357997894287e+00   6.344888687134e+00   6.282476902008e+00   6.313977241516e+00   0.000000000000e+00   0.000000000000e+00   5.663792133331e+00 
  5.591600418091e+00   5.500983238220e+00   5.344787597656e+00   5.183301448822e+00   4.433683395386e+00   6.066596031189e+00   4.503129482269e+00   5.289059638977e+00   5.608023166656e+00 
  5.755249500275e+00   5.863751411438e+00   6.001900196075e+00   6.082448959351e+00   6.120107173920e+00   6.094639301300e+00   6.049844741821e+00   6.092303276062e+00   0.000000000000e+00 
  0.000000000000e+00   5.335218906403e+00   5.292603015900e+00   5.197986125946e+00   4.963037490845e+00   4.740884304047e+00   4.445824623108e+00   3.865457057953e+00   4.771732807159e+00 
  5.027059555054e+00   5.279380321503e+00   5.474727630615e+00   5.618629455566e+00   5.765976905823e+00   5.877253532410e+00   5.873548507690e+00   5.890180587769e+00   5.853828430176e+00 
  5.884900569916e+00   0.000000000000e+00   0.000000000000e+00   5.030036926270e+00   4.984433650970e+00   4.848127365112e+00   4.647705554962e+00   4.313550949097e+00   3.817233562469e+00 
  4.112952709198e+00   4.512202262878e+00   4.670490741730e+00   4.882272243500e+00   5.086562156677e+00   5.266347408295e+00   5.538132667542e+00   5.760726451874e+00   5.896504878998e+00 
  5.747999668121e+00   5.706163883209e+00   5.695229053497e+00   0.000000000000e+00   0.000000000000e+00   4.826412677765e+00   4.771006107330e+00   4.690339565277e+00   4.482421875000e+00 
  4.285276889801e+00   4.124245166779e+00   4.158263206482e+00   4.336314678192e+00   4.461282253265e+00   4.635297775269e+00   4.767690181732e+00   5.009081840515e+00   5.167771339417e+00 
  5.270509719849e+00   5.561940670013e+00   5.496970653534e+00   5.373193740845e+00   5.258774757385e+00   0.000000000000e+00   0.000000000000e+00   4.641386985779e+00   4.594860076904e+00 
  4.525615692139e+00   4.441946506500e+00   4.325233459473e+00   4.213640689850e+00   4.224453449249e+00   4.267378330231e+00   4.378466606140e+00   4.461192607880e+00   4.544541835785e+00 
  4.769938945770e+00   4.857848167419e+00   5.190583229065e+00   5.412504673004e+00   5.513869285583e+00   5.185606479645e+00   4.791034221649e+00   0.000000000000e+00   0.000000000000e+00 
  4.394979000092e+00   4.346126556396e+00   4.244924068451e+00   4.134482383728e+00   4.135460376740e+00   4.063098907471e+00   3.977504730225e+00   3.985913991928e+00   4.036244392395e+00 
  4.103973865509e+00   4.238158226013e+00   4.415312767029e+00   4.456241607666e+00   4.990422725677e+00   5.552105426788e+00   5.273907184601e+00   4.210947990417e+00   3.918022871017e+00 
  0.000000000000e+00   0.000000000000e+00   4.141766071320e+00   4.088891029358e+00   4.042016506195e+00   4.048326492310e+00   4.015295505524e+00   3.973954916000e+00   3.927136182785e+00 
  3.916854381561e+00   3.933447837830e+00   4.092330932617e+00   4.084304809570e+00   4.140595912933e+00   4.388732910156e+00   4.590887546539e+00   4.862290859222e+00   4.658670902252e+00 
  3.512985944748e+00   3.410311698914e+00   0.000000000000e+00   0.000000000000e+00   3.978044509888e+00   3.961477279663e+00   3.905092000961e+00   3.874044179916e+00   3.845315456390e+00 
  3.850909233093e+00   3.792121410370e+00   3.750813484192e+00   3.741152048111e+00   3.872722148895e+00   3.803766012192e+00   3.858794689178e+00   3.930578708649e+00   3.967147827148e+00 
  3.792482137680e+00   3.158607721329e+00   3.077557563782e+00   3.088261365891e+00   0.000000000000e+00   0.000000000000e+00   3.775346517563e+00   3.768895626068e+00   3.716767549515e+00 
  3.697769165039e+00   3.715788841248e+00   3.671686172485e+00   3.659876108170e+00   3.567193746567e+00   3.473350048065e+00   3.476240634918e+00   3.553054571152e+00   3.653534889221e+00 
  3.728525161743e+00   3.713946342468e+00   3.571021556854e+00   3.211192607880e+00   3.092432975769e+00   3.037026166916e+00   0.000000000000e+00   0.000000000000e+00   3.694211483002e+00 
  3.637379646301e+00   3.678519487381e+00   3.716310501099e+00   3.801484346390e+00   3.876035213470e+00   3.877207040787e+00   3.415654659271e+00   3.195665597916e+00   3.149528980255e+00 
  3.316826581955e+00   3.361048460007e+00   3.454873085022e+00   3.432195425034e+00   3.319807767868e+00   3.129668951035e+00   2.909988164902e+00   2.618767023087e+00   0.000000000000e+00 
  0.000000000000e+00   3.477844238281e+00   3.503344774246e+00   3.552702903748e+00   3.626242637634e+00   3.767072916031e+00   3.651914596558e+00   4.426211833954e+00   3.191698312759e+00 
  2.525732755661e+00   2.391559839249e+00   3.044821023941e+00   3.232775211334e+00   3.282282590866e+00   3.257836103439e+00   3.190418481827e+00   3.029971122742e+00   2.610489130020e+00 
  4.600508689880e+00   0.000000000000e+00   0.000000000000e+00   3.237468004227e+00   3.251188993454e+00   3.392004251480e+00   3.543082237244e+00   3.690597772598e+00   4.016251564026e+00 
  4.465704441071e+00   3.006536722183e+00   2.946086406708e+00   2.092834949493e+00   2.747496843338e+00   2.975969314575e+00   3.068954467773e+00   3.081236600876e+00   3.027032613754e+00 
  2.991365671158e+00   2.835625886917e+00   2.475821495056e+00   0.000000000000e+00   0.000000000000e+00   2.768598794937e+00   2.876353263855e+00   3.097166776657e+00   3.302336692810e+00 
  3.563192129135e+00   3.871073007584e+00   4.066953182220e+00   3.046486854553e+00   2.324141979218e+00   2.415730953217e+00   2.608334779739e+00   2.864930152893e+00   2.910747766495e+00 
  2.737728357315e+00   2.760313749313e+00   2.854994058609e+00   2.729450702667e+00   2.777763843536e+00   0.000000000000e+00   0.000000000000e+00   2.401237249374e+00   2.397536754608e+00 
  2.792501211166e+00   3.290423154831e+00   3.505685806274e+00   3.632196426392e+00   3.589187383652e+00   3.255905151367e+00   2.793674707413e+00   2.235085725784e+00   2.204913377762e+00 
  2.805564641953e+00   2.721002101898e+00   2.331356525421e+00   2.243554830551e+00   2.654029130936e+00   2.761047601700e+00   2.857125759125e+00   0.000000000000e+00   0.000000000000e+00 
  1.769285321236e+00   1.558619260788e+00   2.422373533249e+00   3.269559383392e+00   3.404185771942e+00   3.576869487762e+00   3.730410814285e+00   3.570108175278e+00   3.326778411865e+00 
  2.115043878555e+00   1.846808195114e+00   3.171732664108e+00   2.676295757294e+00   1.772308468819e+00   1.973633289337e+00   2.303103923798e+00   2.571787118912e+00   2.769231796265e+00 
  0.000000000000e+00   0.000000000000e+00   0.000000000000e+00   0.000000000000e+00   0.000000000000e+00   0.000000000000e+00   0.000000000000e+00   0.000000000000e+00   0.000000000000e+00 
  0.000000000000e+00   0.000000000000e+00   0.000000000000e+00   0.000000000000e+00   0.000000000000e+00   0.000000000000e+00   0.000000000000e+00   0.000000000000e+00   0.000000000000e+00 
  0.000000000000e+00   0.000000000000e+00   0.000000000000e+00   0.000000000000e+00   0.000000000000e+00   0.000000000000e+00   0.000000000000e+00   0.000000000000e+00   0.000000000000e+00 
  0.000000000000e+00   0.000000000000e+00   0.000000000000e+00   0.000000000000e+00   0.000000000000e+00   0.000000000000e+00   0.000000000000e+00   0.000000000000e+00   0.000000000000e+00 
  0.000000000000e+00   0.000000000000e+00   0.000000000000e+00   0.000000000000e+00   0.000000000000e+00   0.000000000000e+00   5.256902217865e+00   5.253757953644e+00   5.238437175751e+00 
  5.221664428711e+00   5.233040332794e+00   5.269227027893e+00   5.289299964905e+00   5.277939319611e+00   5.318683624268e+00   5.347415924072e+00   5.401947975159e+00   5.480490684509e+00 
  5.545714378357e+00   5.586508750916e+00   5.594523906708e+00   5.596447467804e+00   5.589271545410e+00   5.613480091095e+00   0.000000000000e+00   0.000000000000e+00   5.179617404938e+00 
  5.154239654541e+00   5.089803218842e+00   5.070131778717e+00   5.041642189026e+00   5.029658794403e+00   5.005433559418e+00   5.067341327667e+00   5.167656898499e+00   5.279776096344e+00 
  5.338155269623e+00   5.408296585083e+00   5.472440242767e+00   5.509085655212e+00   5.524317264557e+00   5.509311199188e+00   5.498981952667e+00   5.533675193787e+00   0.000000000000e+00 
  0.000000000000e+00   4.879839897156e+00   4.863558292389e+00   4.835511207581e+00   4.745943546295e+00   4.715476036072e+00   4.661856651306e+00   4.513488769531e+00   4.709036350250e+00 
  4.868318080902e+00   4.998753547668e+00   5.080786705017e+00   5.166011333466e+00   5.236613273621e+00   5.281533718109e+00   5.289001941681e+00   5.302694797516e+00   5.273849010468e+00 
  5.315439224243e+00   0.000000000000e+00   0.000000000000e+00   4.679383754730e+00   4.656220912933e+00   4.549489974976e+00   4.334581851959e+00   4.212682247162e+00   4.072644710541e+00 
  3.514678716660e+00   4.254355430603e+00   4.577756404877e+00   4.695663928986e+00   4.813772678375e+00   4.928171634674e+00   5.043265342712e+00   5.104067325592e+00   5.149659156799e+00 
  5.118106842041e+00   5.075291156769e+00   5.100243568420e+00   0.000000000000e+00   0.000000000000e+00   4.374028682709e+00   4.318700313568e+00   4.195817947388e+00   3.860458850861e+00 
  3.815376996994e+00   3.365043163300e+00   3.327161550522e+00   3.840086460114e+00   4.008697986603e+00   4.239805698395e+00   4.455276966095e+00   4.638116836548e+00   4.805288314819e+00 
  4.954108238220e+00   4.883602142334e+00   4.851764678955e+00   4.832680702209e+00   4.829764366150e+00   0.000000000000e+00   0.000000000000e+00   4.103991508484e+00   4.039206504822e+00 
  3.913266420364e+00   3.578114748001e+00   2.913232326508e+00   4.040900707245e+00   2.886757612228e+00   3.477684020996e+00   3.612007379532e+00   3.879043817520e+00   4.069862365723e+00 
  4.163004398346e+00   4.341771602631e+00   4.428705692291e+00   4.629963874817e+00   4.537545204163e+00   4.506221294403e+00   4.511503219604e+00   0.000000000000e+00   0.000000000000e+00 