# vtk DataFile Version 2.0
Written using VisIt writer
ASCII
DATASET RECTILINEAR_GRID
DIMENSIONS 20 20 20
X_COORDINATES 20 float
  0.000000000000e+00   1.000000000000e+00   2.000000000000e+00   3.000000000000e+00   4.000000000000e+00   5.000000000000e+00   6.000000000000e+00   7.000000000000e+00   8.000000000000e+00 
  9.000000000000e+00   1.000000000000e+01   1.100000000000e+01   1.200000000000e+01   1.300000000000e+01   1.400000000000e+01   1.500000000000e+01   1.600000000000e+01   1.700000000000e+01 
  1.800000000000e+01   1.900000000000e+01 
Y_COORDINATES 20 float
  0.000000000000e+00   1.000000000000e+00   2.000000000000e+00   3.000000000000e+00   4.000000000000e+00   5.000000000000e+00   6.000000000000e+00   7.000000000000e+00   8.000000000000e+00 
  9.000000000000e+00   1.000000000000e+01   1.100000000000e+01   1.200000000000e+01   1.300000000000e+01   1.400000000000e+01   1.500000000000e+01   1.600000000000e+01   1.700000000000e+01 
  1.800000000000e+01   1.900000000000e+01 
Z_COORDINATES 20 float
  0.000000000000e+00   1.000000000000e+00   2.000000000000e+00   3.000000000000e+00   4.000000000000e+00   5.000000000000e+00   6.000000000000e+00   7.000000000000e+00   8.000000000000e+00 
  9.000000000000e+00   1.000000000000e+01   1.100000000000e+01   1.200000000000e+01   1.300000000000e+01   1.400000000000e+01   1.500000000000e+01   1.600000000000e+01   1.700000000000e+01 
  1.800000000000e+01   1.900000000000e+01 
CELL_DATA 6859
POINT_DATA 8000
SCALARS pressure float
LOOKUP_TABLE default
  0.000000000000e+00   0.000000000000e+00   0.000000000000e+00   0.000000000000e+00   0.000000000000e+00   0.000000000000e+00   0.000000000000e+00   0.000000000000e+00   0.000000000000e+00 
  0.000000000000e+00   0.000000000000e+00   0.000000000000e+00   0.000000000000e+00   0.000000000000e+00   0.000000000000e+00   0.000000000000e+00   0.000000000000e+00   0.000000000000e+00 
  0.000000000000e+00   0.000000000000e+00   0.000000000000e+00   0.000000000000e+00   0.000000000000e+00   0.000000000000e+00   0.000000000000e+00   0.000000000000e+00   0.000000000000e+00 
  0.000000000000e+00   0.000000000000e+00   0.000000000000e+00   0.000000000000e+00   0.000000000000e+00   0.000000000000e+00   0.000000000000e+00   0.000000000000e+00   0.000000000000e+00 
  0.000000000000e+00   0.000000000000e+00   0.000000000000e+00   0.000000000000e+00   0.000000000000e+00   0.000000000000e+00   0.000000000000e+00   0.000000000000e+00   0.000000000000e+00 
  0.000000000000e+00   0.000000000000e+00   0.000000000000e+00   0.000000000000e+00   0.000000000000e+00   0.000000000000e+00   0.000000000000e+00   0.000000000000e+00   0.000000000000e+00 
  0.000000000000e+00   0.000000000000e+00   0.000000000000e+00   0.000000000000e+00   0.000000000000e+00   0.000000000000e+00   0.000000000000e+00   0.000000000000e+00   0.000000000000e+00 
  0.000000000000e+00   0.000000000000e+00   0.000000000000e+00   0.000000000000e+00   0.000000000000e+00   0.000000000000e+00   0.000000000000e+00   0.000000000000e+00   0.000000000000e+00 
  0.000000000000e+00   0.000000000000e+00   0.000000000000e+00   0.000000000000e+00   0.000000000000e+00   0.000000000000e+00   0.000000000000e+00   0.000000000000e+00   0.000000000000e+00 
  0.000000000000e+00   0.000000000000e+00   0.000000000000e+00   0.000000000000e+00   0.000000000000e+00   0.000000000000e+00   0.000000000000e+00   0.000000000000e+00   0.000000000000e+00 
  0.000000000000e+00   0.000000000000e+00   0.000000000000e+00   0.000000000000e+00   0.000000000000e+00   0.000000000000e+00   0.000000000000e+00   0.000000000000e+00   0.000000000000e+00 
  0.000000000000e+00   0.000000000000e+00   0.000000000000e+00   0.000000000000e+00   0.000000000000e+00   0.000000000000e+00   0.000000000000e+00   0.000000000000e+00   0.000000000000e+00 
  0.000000000000e+00   0.000000000000e+00   0.000000000000e+00   0.000000000000e+00   0.000000000000e+00   0.000000000000e+00   0.000000000000e+00   0.000000000000e+00   0.000000000000e+00 
  0.000000000000e+00   0.000000000000e+00   0.000000000000e+00   0.000000000000e+00   0.000000000000e+00   0.000000000000e+00   0.000000000000e+00   0.000000000000e+00   0.000000000000e+00 
  0.000000000000e+00   0.000000000000e+00   0.000000000000e+00   0.000000000000e+00   0.000000000000e+00   0.000000000000e+00   0.000000000000e+00   0.000000000000e+00   0.000000000000e+00 
  0.000000000000e+00   0.000000000000e+00   0.000000000000e+00   0.000000000000e+00   0.000000000000e+00   0.000000000000e+00   0.000000000000e+00   0.000000000000e+00   0.000000000000e+00 
  0.000000000000e+00   0.000000000000e+00   0.000000000000e+00   0.000000000000e+00   0.000000000000e+00   0.000000000000e+00   0.000000000000e+00   0.000000000000e+00   0.000000000000e+00 
  0.000000000000e+00   0.000000000000e+00   0.000000000000e+00   0.000000000000e+00   0.000000000000e+00   0.000000000000e+00   0.000000000000e+00   0.000000000000e+00   0.000000000000e+00 
  0.000000000000e+00   0.000000000000e+00   0.000000000000e+00   0.000000000000e+00   0.000000000000e+00   0.000000000000e+00   0.000000000000e+00   0.000000000000e+00   0.000000000000e+00 
  0.000000000000e+00   0.000000000000e+00   0.000000000000e+00   0.000000000000e+00   0.000000000000e+00   0.000000000000e+00   0.000000000000e+00   0.000000000000e+00   0.000000000000e+00 
  0.000000000000e+00   0.000000000000e+00   0.000000000000e+00   0.000000000000e+00   0.000000000000e+00   0.000000000000e+00   0.000000000000e+00   0.000000000000e+00   0.000000000000e+00 
  0.000000000000e+00   0.000000000000e+00   0.000000000000e+00   0.000000000000e+00   0.000000000000e+00   0.000000000000e+00   0.000000000000e+00   0.000000000000e+00   0.000000000000e+00 
  0.000000000000e+00   0.000000000000e+00   0.000000000000e+00   0.000000000000e+00   0.000000000000e+00   0.000000000000e+00   0.000000000000e+00   0.000000000000e+00   0.000000000000e+00 
  0.000000000000e+00   0.000000000000e+00   0.000000000000e+00   0.000000000000e+00   0.000000000000e+00   0.000000000000e+00   0.000000000000e+00   0.000000000000e+00   0.000000000000e+00 
  0.000000000000e+00   0.000000000000e+00   0.000000000000e+00   0.000000000000e+00   0.000000000000e+00   0.000000000000e+00   0.000000000000e+00   0.000000000000e+00   0.000000000000e+00 
  0.000000000000e+00   0.000000000000e+00   0.000000000000e+00   0.000000000000e+00   0.000000000000e+00   0.000000000000e+00   0.000000000000e+00   0.000000000000e+00   0.000000000000e+00 
  0.000000000000e+00   0.000000000000e+00   0.000000000000e+00   0.000000000000e+00   0.000000000000e+00   0.000000000000e+00   0.000000000000e+00   0.000000000000e+00   0.000000000000e+00 
  0.000000000000e+00   0.000000000000e+00   0.000000000000e+00   0.000000000000e+00   0.000000000000e+00   0.000000000000e+00   0.000000000000e+00   0.000000000000e+00   0.000000000000e+00 
  0.000000000000e+00   0.000000000000e+00   0.000000000000e+00   0.000000000000e+00   0.000000000000e+00   0.000000000000e+00   0.000000000000e+00   0.000000000000e+00   0.000000000000e+00 
  0.000000000000e+00   0.000000000000e+00   0.000000000000e+00   0.000000000000e+00   0.000000000000e+00   0.000000000000e+00   0.000000000000e+00   0.000000000000e+00   0.000000000000e+00 
  0.000000000000e+00   0.000000000000e+00   0.000000000000e+00   0.000000000000e+00   0.000000000000e+00   0.000000000000e+00   0.000000000000e+00   0.000000000000e+00   0.000000000000e+00 
  0.000000000000e+00   0.000000000000e+00   0.000000000000e+00   0.000000000000e+00   0.000000000000e+00   0.000000000000e+00   0.000000000000e+00   0.000000000000e+00   0.000000000000e+00 
  0.000000000000e+00   0.000000000000e+00   0.000000000000e+00   0.000000000000e+00   0.000000000000e+00   0.000000000000e+00   0.000000000000e+00   0.000000000000e+00   0.000000000000e+00 
  0.000000000000e+00   0.000000000000e+00   0.000000000000e+00   0.000000000000e+00   0.000000000000e+00   0.000000000000e+00   0.000000000000e+00   0.000000000000e+00   0.000000000000e+00 
  0.000000000000e+00   0.000000000000e+00   0.000000000000e+00   0.000000000000e+00   0.000000000000e+00   0.000000000000e+00   0.000000000000e+00   0.000000000000e+00   0.000000000000e+00 
  0.000000000000e+00   0.000000000000e+00   0.000000000000e+00   0.000000000000e+00   0.000000000000e+00   0.000000000000e+00   0.000000000000e+00   0.000000000000e+00   0.000000000000e+00 
  0.000000000000e+00   0.000000000000e+00   0.000000000000e+00   0.000000000000e+00   0.000000000000e+00   0.000000000000e+00   0.000000000000e+00   0.000000000000e+00   0.000000000000e+00 
  0.000000000000e+00   0.000000000000e+00   0.000000000000e+00   0.000000000000e+00   0.000000000000e+00   0.000000000000e+00   0.000000000000e+00   0.000000000000e+00   0.000000000000e+00 
  0.000000000000e+00   0.000000000000e+00   0.000000000000e+00   0.000000000000e+00   0.000000000000e+00   0.000000000000e+00   0.000000000000e+00   0.000000000000e+00   0.000000000000e+00 
  0.000000000000e+00   0.000000000000e+00   0.000000000000e+00   0.000000000000e+00   0.000000000000e+00   0.000000000000e+00   0.000000000000e+00   0.000000000000e+00   0.000000000000e+00 
  0.000000000000e+00   0.000000000000e+00   0.000000000000e+00   0.000000000000e+00   0.000000000000e+00   0.000000000000e+00   0.000000000000e+00   0.000000000000e+00   0.000000000000e+00 
  0.000000000000e+00   0.000000000000e+00   0.000000000000e+00   0.000000000000e+00   0.000000000000e+00   0.000000000000e+00   0.000000000000e+00   0.000000000000e+00   0.000000000000e+00 
  0.000000000000e+00   0.000000000000e+00   0.000000000000e+00   0.000000000000e+00   0.000000000000e+00   0.000000000000e+00   0.000000000000e+00   0.000000000000e+00   0.000000000000e+00 
  0.000000000000e+00   0.000000000000e+00   0.000000000000e+00   0.000000000000e+00   0.000000000000e+00   0.000000000000e+00   0.000000000000e+00   0.000000000000e+00   0.000000000000e+00 
  0.000000000000e+00   0.000000000000e+00   0.000000000000e+00   0.000000000000e+00   0.000000000000e+00   0.000000000000e+00   0.000000000000e+00   0.000000000000e+00   0.000000000000e+00 
  0.000000000000e+00   0.000000000000e+00   0.000000000000e+00   0.000000000000e+00   0.000000000000e+00   0.000000000000e+00   0.000000000000e+00   0.000000000000e+00   0.000000000000e+00 
  0.000000000000e+00   0.000000000000e+00   0.000000000000e+00   0.000000000000e+00   0.000000000000e+00   0.000000000000e+00   0.000000000000e+00   1.573545098305e+00   1.636418342590e+00 
  1.937033057213e+00   3.154293298721e+00   2.815578460693e+00   2.536902189255e+00   2.201680421829e+00   3.346284627914e+00   4.398870944977e+00   8.052731513977e+00   9.213353157043e+00 
  7.616789340973e+00   5.203359603882e+00   2.704321622849e+00   2.009715795517e+00   1.790633320808e+00   1.700147151947e+00   1.669999599457e+00   0.000000000000e+00   0.000000000000e+00 
  1.380320644379e+01   1.369140148163e+01   1.316699981689e+01   4.210616588593e+00   7.652010440826e+00   1.066168212891e+01   5.179687023163e+00   3.067170858383e+00   1.004888820648e+01 
  9.802707672119e+00   1.211646556854e+01   9.728536605835e+00   5.976768016815e+00   1.567720603943e+01   1.476416683197e+01   1.422950363159e+01   1.398553466797e+01   1.387884616852e+01 
  0.000000000000e+00   0.000000000000e+00   5.265125274658e+00   5.177302360535e+00   4.870957851410e+00   4.727428436279e+00   3.558341741562e+00   3.003408432007e+00   2.634708642960e+00 
  3.442973375320e+00   4.118839263916e+00   6.944770336151e+00   7.864712715149e+00   6.811057090759e+00   5.449481964111e+00   4.495366573334e+00   5.314512729645e+00   5.672793388367e+00 
  5.670592308044e+00   5.641108512878e+00   0.000000000000e+00   0.000000000000e+00   4.820080280304e+00   4.726610660553e+00   4.484703063965e+00   4.114583492279e+00   3.660153627396e+00 
  3.302280426025e+00   3.113412618637e+00   3.443894624710e+00   4.030172348022e+00   5.108072280884e+00   5.559929370880e+00   5.157171249390e+00   4.599844932556e+00   4.448991775513e+00 
  4.934760093689e+00   5.177072048187e+00   5.207581043243e+00   5.203949451447e+00   0.000000000000e+00   0.000000000000e+00   3.401022195816e+00   3.343140602112e+00   3.205973148346e+00 
  3.013289928436e+00   2.844235420227e+00   2.661140441895e+00   2.598207712173e+00   2.663225412369e+00   2.921383142471e+00   3.209708929062e+00   3.317055702209e+00   3.229609727859e+00 
  3.102167606354e+00   3.098464488983e+00   3.256242275238e+00   3.377483129501e+00   3.419127702713e+00   3.430805444717e+00   0.000000000000e+00   0.000000000000e+00   3.116668701172e+00 
  3.063288450241e+00   2.784175157547e+00   2.161074876785e+00   4.880539417267e+00   2.121983528137e+00   2.582057952881e+00   2.206062793732e+00   4.812271595001e+00   4.749107837677e+00 
  4.722223758698e+00   4.682713031769e+00   4.657105445862e+00   4.648025989532e+00   4.648600101471e+00   4.650403022766e+00   4.652301788330e+00   4.653082847595e+00   0.000000000000e+00 
  0.000000000000e+00   3.384596824646e+00   3.418519973755e+00   3.317892074585e+00   3.435365676880e+00   3.512384653091e+00   3.361154317856e+00   3.299519538879e+00   3.342178106308e+00 
  3.303770303726e+00   3.292527437210e+00   3.254087686539e+00   3.224551200867e+00   3.206124782562e+00   3.194507598877e+00   3.188630580902e+00   3.183701038361e+00   3.178234338760e+00 
  3.178409099579e+00   0.000000000000e+00   0.000000000000e+00   4.931787967682e+00   4.974428176880e+00   4.913590431213e+00   4.977039337158e+00   4.950673103333e+00   4.883413314819e+00 
  4.807199001312e+00   4.761951923370e+00   4.603348255157e+00   4.507225036621e+00   4.417599201202e+00   4.340640068054e+00   4.283717155457e+00   4.241667747498e+00   4.212477207184e+00 
  4.191513538361e+00   4.180369853973e+00   4.180734634399e+00   0.000000000000e+00   0.000000000000e+00   5.739753723145e+00   5.789893627167e+00   5.871204376221e+00   5.890807151794e+00 
  5.861353397369e+00   5.777668952942e+00   5.638813972473e+00   5.458283901215e+00   5.148668289185e+00   4.972025871277e+00   4.842862129211e+00   4.738973140717e+00   4.670118808746e+00 
  4.612769126892e+00   4.567021369934e+00   4.545819282532e+00   4.544192790985e+00   4.553508281708e+00   0.000000000000e+00   0.000000000000e+00   7.434975147247e+00   7.513178825378e+00 
  7.623804569244e+00   7.718926906586e+00   7.733103752136e+00   7.655950546265e+00   7.553131580353e+00   7.252807140350e+00   6.284337043762e+00   5.792534351349e+00   5.597260951996e+00 
  5.452705383301e+00   5.339023113251e+00   5.302717685699e+00   5.417016506195e+00   5.365226268768e+00   5.313560962677e+00   5.326116561890e+00   0.000000000000e+00   0.000000000000e+00 
  8.219236373901e+00   8.475033760071e+00   8.858601570129e+00   9.106790542603e+00   9.144760131836e+00   8.993596076965e+00   8.647937774658e+00   8.021268844604e+00   7.081462860107e+00 
  6.532371044159e+00   6.250253200531e+00   6.016847610474e+00   5.856201648712e+00   5.774677276611e+00   5.828091144562e+00   5.781729221344e+00   5.739320278168e+00   5.789794921875e+00 
  0.000000000000e+00   0.000000000000e+00   8.576993942261e+00   9.119535446167e+00   1.007203197479e+01   1.054856777191e+01   1.057670211792e+01   1.036045837402e+01   9.708086013794e+00 
  8.454541206360e+00   7.489285469055e+00   6.933610916138e+00   6.675242424011e+00   6.279094219208e+00   6.056798934937e+00   5.916732311249e+00   5.797111034393e+00   5.741711616516e+00 
  5.723264694214e+00   5.967484474182e+00   0.000000000000e+00   0.000000000000e+00   9.814276695251e+00   1.092180442810e+01   1.303830528259e+01   1.393345355988e+01   1.398627376556e+01 
  1.376143169403e+01   1.269551563263e+01   1.017227554321e+01   8.422746658325e+00   7.811278820038e+00   7.875686168671e+00   6.994017124176e+00   6.503739833832e+00   6.347653865814e+00 
  6.262411117554e+00   6.225206375122e+00   6.409897804260e+00   7.252727508545e+00   0.000000000000e+00   0.000000000000e+00   9.731225967407e+00   1.039162063599e+01   1.160574436188e+01 
  1.216321754456e+01   1.220188045502e+01   1.198851013184e+01   1.123785400391e+01   9.723454475403e+00   8.495345115662e+00   7.927693843842e+00   7.909903049469e+00   7.204164505005e+00 
  6.901242256165e+00   6.779742240906e+00   6.692131996155e+00   6.641987800598e+00   6.666539669037e+00   7.166324615479e+00   0.000000000000e+00   0.000000000000e+00   9.737073898315e+00 
  9.908751487732e+00   1.031043052673e+01   1.054744815826e+01   1.057104778290e+01   1.036700630188e+01   9.909343719482e+00   9.264824867249e+00   8.578777313232e+00   8.083955764771e+00 
  7.827990055084e+00   7.445157051086e+00   7.281022071838e+00   7.166829109192e+00   7.080234527588e+00   7.020470142365e+00   6.989182949066e+00   6.985532760620e+00   0.000000000000e+00 
  0.000000000000e+00   9.515434265137e+00   9.530900955200e+00   9.746572494507e+00   9.872700691223e+00   9.867969512939e+00   9.714617729187e+00   9.409375190735e+00   9.025399208069e+00 
  8.623970985413e+00   8.272543907166e+00   8.007053375244e+00   7.829248905182e+00   7.687954902649e+00   7.572487354279e+00   7.498270034790e+00   7.430481433868e+00   7.431305408478e+00 
  7.266572475433e+00   0.000000000000e+00   0.000000000000e+00   9.051096916199e+00   9.318902015686e+00   9.605093002319e+00   9.641894340515e+00   9.626533508301e+00   9.511955261230e+00 
  9.296036720276e+00   9.083197593689e+00   8.770075798035e+00   8.487995147705e+00   8.299551010132e+00   8.112852096558e+00   7.942749023438e+00   7.822690486908e+00   7.736915111542e+00 
  7.695490360260e+00   7.669731616974e+00   7.462924003601e+00   0.000000000000e+00   0.000000000000e+00   1.010050392151e+01   9.669371604919e+00   9.702080726624e+00   9.702880859375e+00 
  9.658830642700e+00   9.543416976929e+00   9.378759384155e+00   9.077229499817e+00   8.946159362793e+00   8.780911445618e+00   8.538247108459e+00   8.373187065125e+00   8.271421432495e+00 
  8.167190551758e+00   8.098485946655e+00   8.020131111145e+00   7.987103462219e+00   8.111540794373e+00   0.000000000000e+00   0.000000000000e+00   0.000000000000e+00   0.000000000000e+00 
  0.000000000000e+00   0.000000000000e+00   0.000000000000e+00   0.000000000000e+00   0.000000000000e+00   0.000000000000e+00   0.000000000000e+00   0.000000000000e+00   0.000000000000e+00 
  0.000000000000e+00   0.000000000000e+00   0.000000000000e+00   0.000000000000e+00   0.000000000000e+00   0.000000000000e+00   0.000000000000e+00   0.000000000000e+00   0.000000000000e+00 
  0.000000000000e+00   0.000000000000e+00   0.000000000000e+00   0.000000000000e+00   0.000000000000e+00   0.000000000000e+00   0.000000000000e+00   0.000000000000e+00   0.000000000000e+00 
  0.000000000000e+00   0.000000000000e+00   0.000000000000e+00   0.000000000000e+00   0.000000000000e+00   0.000000000000e+00   0.000000000000e+00   0.000000000000e+00   0.000000000000e+00 
  0.000000000000e+00   0.000000000000e+00   2.311523914337e+00   2.345454216003e+00   2.443968057632e+00   2.710207462311e+00   2.567830324173e+00   2.416257619858e+00   2.381770610809e+00 
  3.055157899857e+00   4.032230854034e+00   5.753016471863e+00   6.354465484619e+00   5.517438411713e+00   4.175619125366e+00   3.016109704971e+00   2.716401576996e+00   2.609223127365e+00 
  2.532404661179e+00   2.500359296799e+00   0.000000000000e+00   0.000000000000e+00   2.746658563614e+00   2.794757604599e+00   2.884057521820e+00   3.372698307037e+00   2.780750989914e+00 
  2.477108001709e+00   2.217268228531e+00   3.049195766449e+00   3.740430116653e+00   6.437907695770e+00   7.261926651001e+00   6.017331600189e+00   4.248873710632e+00   2.777206659317e+00 
  2.982577562332e+00   3.034192800522e+00   2.959401607513e+00   2.922435998917e+00   0.000000000000e+00   0.000000000000e+00   6.832934379578e+00   6.804123878479e+00   6.322308063507e+00 
  4.929891109467e+00   3.816015958786e+00   3.402261972427e+00   3.282369136810e+00   3.708206176758e+00   4.352382659912e+00   5.579091548920e+00   5.975008010864e+00   5.405589580536e+00 
  4.857718944550e+00   5.266135692596e+00   6.961127758026e+00   7.408360481262e+00   7.287767410278e+00   7.208545684814e+00   0.000000000000e+00   0.000000000000e+00   5.111435413361e+00 
  5.042174816132e+00   4.718510150909e+00   3.918266534805e+00   3.346336841583e+00   3.063167095184e+00   2.975126504898e+00   3.192785739899e+00   3.629693746567e+00   4.239090919495e+00 
  4.487430095673e+00   4.275220394135e+00   4.052638053894e+00   4.330154418945e+00   5.204592704773e+00   5.483798980713e+00   5.465999603271e+00   5.443428993225e+00   0.000000000000e+00 
  0.000000000000e+00   3.717810869217e+00   3.652960300446e+00   3.475467681885e+00   3.171083927155e+00   2.929425239563e+00   2.762949943542e+00   2.709847688675e+00   2.774077415466e+00 
  2.981570005417e+00   3.204923391342e+00   3.289242982864e+00   3.227362871170e+00   3.168285846710e+00   3.283669233322e+00   3.565773010254e+00   3.717097997665e+00   3.750863552094e+00 
  3.756670236588e+00   0.000000000000e+00   0.000000000000e+00   2.700959444046e+00   2.676630973816e+00   2.616443395615e+00   2.558442115784e+00   2.530888319016e+00   2.406068086624e+00 
  2.347095727921e+00   2.399525880814e+00   2.524869918823e+00   2.601560354233e+00   2.639614582062e+00   2.650367498398e+00   2.655853271484e+00   2.683934926987e+00   2.734781742096e+00 
  2.773046016693e+00   2.789043188095e+00   2.796774387360e+00   0.000000000000e+00   0.000000000000e+00   3.104215860367e+00   3.107990741730e+00   3.060632467270e+00   3.036911964417e+00 
  2.995567083359e+00   2.932111740112e+00   2.895358800888e+00   2.887068033218e+00   2.859261274338e+00   2.847116947174e+00   2.827944993973e+00   2.808773279190e+00   2.795481204987e+00 
  2.793883800507e+00   2.803004026413e+00   2.811578035355e+00   2.814746618271e+00   2.818578243256e+00   0.000000000000e+00   0.000000000000e+00   4.018243312836e+00   4.037868976593e+00 
  4.049719810486e+00   4.052124500275e+00   4.022426605225e+00   3.964952468872e+00   3.884183645248e+00   3.806703805923e+00   3.728212118149e+00   3.662357568741e+00   3.594392538071e+00 
  3.538798809052e+00   3.499284982681e+00   3.475163459778e+00   3.463236093521e+00   3.456224441528e+00   3.450977563858e+00   3.451880693436e+00   0.000000000000e+00   0.000000000000e+00 
  4.720888614655e+00   4.754023551941e+00   4.798632144928e+00   4.808096408844e+00   4.780024528503e+00   4.705101013184e+00   4.587467193604e+00   4.448300838470e+00   4.280049800873e+00 
  4.146780490875e+00   4.036751270294e+00   3.948219299316e+00   3.882324934006e+00   3.830088615417e+00   3.791035413742e+00   3.771260738373e+00   3.764186382294e+00   3.766824007034e+00 
  0.000000000000e+00   0.000000000000e+00   5.596873283386e+00   5.666017532349e+00   5.763331413269e+00   5.830292701721e+00   5.822533607483e+00   5.729884147644e+00   5.578279495239e+00 
  5.338321685791e+00   4.890012264252e+00   4.613243579865e+00   4.451502323151e+00   4.322278022766e+00   4.214838504791e+00   4.129492759705e+00   4.092035293579e+00   4.042111873627e+00 
  4.019310474396e+00   4.028511047363e+00   0.000000000000e+00   0.000000000000e+00   6.435384273529e+00   6.605912208557e+00   6.854986190796e+00   7.020358562469e+00   7.032760620117e+00 
  6.885242462158e+00   6.576825618744e+00   6.130315780640e+00   5.608908176422e+00   5.243204116821e+00   4.998119831085e+00   4.811100482941e+00   4.678895950317e+00   4.578315258026e+00 
  4.514376640320e+00   4.470184326172e+00   4.444882392883e+00   4.461844921112e+00   0.000000000000e+00   0.000000000000e+00   7.221588611603e+00   7.562587738037e+00   8.107460021973e+00 
  8.410232543945e+00   8.433228492737e+00   8.237045288086e+00   7.747967243195e+00   6.947381973267e+00   6.235733509064e+00   5.757976531982e+00   5.468519687653e+00   5.202954769135e+00 
  5.037374019623e+00   4.929128170013e+00   4.846728324890e+00   4.788944244385e+00   4.746809005737e+00   4.822743415833e+00   0.000000000000e+00   0.000000000000e+00   8.109115600586e+00 
  8.646505355835e+00   9.649610519409e+00   1.013669300079e+01   1.018031978607e+01   9.973858833313e+00   9.297145843506e+00   7.966926574707e+00   6.911269664764e+00   6.346621036530e+00 
  6.124258995056e+00   5.675921916962e+00   5.419621467590e+00   5.302561759949e+00   5.224548816681e+00   5.170484066010e+00   5.176944732666e+00   5.454961776733e+00   0.000000000000e+00 
  0.000000000000e+00   8.075181007385e+00   8.478980064392e+00   9.057982444763e+00   9.399473190308e+00   9.437166213989e+00   9.236952781677e+00   8.715553283691e+00   7.857570648193e+00 
  7.078677177429e+00   6.561099529266e+00   6.304401874542e+00   5.967597484589e+00   5.795171737671e+00   5.685573577881e+00   5.605241298676e+00   5.551477432251e+00   5.495846748352e+00 
  5.613301753998e+00   0.000000000000e+00   0.000000000000e+00   8.281417846680e+00   8.433044433594e+00   8.721531867981e+00   8.892849922180e+00   8.897783279419e+00   8.728754997253e+00 
  8.360375404358e+00   7.834306240082e+00   7.317198276520e+00   6.909170627594e+00   6.640123367310e+00   6.394152641296e+00   6.251954078674e+00   6.141356945038e+00   6.062004089355e+00 
  6.008495807648e+00   5.965431213379e+00   5.955729484558e+00   0.000000000000e+00   0.000000000000e+00   8.235000610352e+00   8.337510108948e+00   8.518405914307e+00   8.603800773621e+00 
  8.588044166565e+00   8.454339981079e+00   8.194732666016e+00   7.862799167633e+00   7.527498722076e+00   7.227783679962e+00   6.984476566315e+00   6.801331996918e+00   6.660187244415e+00 
  6.553812980652e+00   6.490417957306e+00   6.440037727356e+00   6.435388088226e+00   6.259366035461e+00   0.000000000000e+00   0.000000000000e+00   8.224696159363e+00   8.266207695007e+00 
  8.378719329834e+00   8.427348136902e+00   8.437891006470e+00   8.371404647827e+00   8.162755012512e+00   7.928843498230e+00   7.649871826172e+00   7.425138473511e+00   7.251784801483e+00 
  7.056846618652e+00   6.918809413910e+00   6.809471607208e+00   6.739540576935e+00   6.676991462708e+00   6.621316909790e+00   6.632212638855e+00   0.000000000000e+00   0.000000000000e+00 
  8.542579650879e+00   8.648660659790e+00   8.673891067505e+00   8.678522109985e+00   8.591299057007e+00   8.414555549622e+00   8.280817031860e+00   8.103430747986e+00   7.955158710480e+00 
  7.755417823792e+00   7.545777797699e+00   7.407458782196e+00   7.273574829102e+00   7.183004856110e+00   7.104654788971e+00   7.055957317352e+00   7.064391136169e+00   7.086151599884e+00 
  0.000000000000e+00   0.000000000000e+00   0.000000000000e+00   0.000000000000e+00   0.000000000000e+00   0.000000000000e+00   0.000000000000e+00   0.000000000000e+00   0.000000000000e+00 
  0.000000000000e+00   0.000000000000e+00   0.000000000000e+00   0.000000000000e+00   0.000000000000e+00   0.000000000000e+00   0.000000000000e+00   0.000000000000e+00   0.000000000000e+00 
  0.000000000000e+00   0.000000000000e+00   0.000000000000e+00   0.000000000000e+00   0.000000000000e+00   0.000000000000e+00   0.000000000000e+00   0.000000000000e+00   0.000000000000e+00 
  0.000000000000e+00   0.000000000000e+00   0.000000000000e+00   0.000000000000e+00   0.000000000000e+00   0.000000000000e+00   0.000000000000e+00   0.000000000000e+00   0.000000000000e+00 
  0.000000000000e+00   0.000000000000e+00   0.000000000000e+00   0.000000000000e+00   0.000000000000e+00   0.000000000000e+00   2.371905803680e+00   2.362854957581e+00   2.338274240494e+00 
  2.304031848907e+00   2.180717706680e+00   2.103602409363e+00   2.169151544571e+00   2.548805475235e+00   3.144814491272e+00   3.905632257462e+00   4.203442573547e+00   3.876180648804e+00 
  3.283496141434e+00   2.805804014206e+00   2.673962831497e+00   2.637942790985e+00   2.608759164810e+00   2.596541166306e+00   0.000000000000e+00   0.000000000000e+00   2.804247856140e+00 
  2.782525062561e+00   2.690824747086e+00   2.527438163757e+00   2.251989603043e+00   2.095757722855e+00   2.085833311081e+00   2.453020572662e+00   3.007119417191e+00   3.877291202545e+00 
  4.200016498566e+00   3.821707963943e+00   3.222658395767e+00   2.849105119705e+00   2.984479427338e+00   3.057608366013e+00   3.044992923737e+00   3.032373189926e+00   0.000000000000e+00 
  0.000000000000e+00   4.635586261749e+00   4.549808502197e+00   4.160639762878e+00   3.275950670242e+00   2.584710121155e+00   2.289174079895e+00   2.253421545029e+00   2.486411094666e+00 
  2.887763500214e+00   3.439079523087e+00   3.685943603516e+00   3.556729793549e+00   3.432623147964e+00   3.777164459229e+00   4.643305301666e+00   4.959398746490e+00   4.958636283875e+00 
  4.935492515564e+00   0.000000000000e+00   0.000000000000e+00   3.764034986496e+00   3.671374559402e+00   3.399776458740e+00   2.894562482834e+00   2.483664989471e+00   2.266774654388e+00 
  2.218631029129e+00   2.347220182419e+00   2.606099367142e+00   2.926901817322e+00   3.107635736465e+00   3.104084730148e+00   3.091386795044e+00   3.297271013260e+00   3.733359813690e+00 
  3.942703485489e+00   3.986397743225e+00   3.993280887604e+00   0.000000000000e+00   0.000000000000e+00   3.086208820343e+00   3.023798465729e+00   2.865288972855e+00   2.612086296082e+00 
  2.397334337234e+00   2.266238212585e+00   2.226612806320e+00   2.282606601715e+00   2.414080858231e+00   2.564831256866e+00   2.653919219971e+00   2.662673711777e+00   2.674149990082e+00 
  2.787087202072e+00   2.989887952805e+00   3.109320640564e+00   3.148977041245e+00   3.162433624268e+00   0.000000000000e+00   0.000000000000e+00   2.579745054245e+00   2.542287349701e+00 
  2.460260391235e+00   2.346527338028e+00   2.242252111435e+00   2.163589239120e+00   2.130361080170e+00   2.142866373062e+00   2.189383983612e+00   2.242104053497e+00   2.276050806046e+00 
  2.286659717560e+00   2.301236629486e+00   2.350016593933e+00   2.425916433334e+00   2.481478691101e+00   2.507445335388e+00   2.519803285599e+00   0.000000000000e+00   0.000000000000e+00 