# vtk DataFile Version 2.0
Written using VisIt writer
ASCII
DATASET RECTILINEAR_GRID
DIMENSIONS 20 20 20
X_COORDINATES 20 float
  0.000000000000e+00   1.000000000000e+00   2.000000000000e+00   3.000000000000e+00   4.000000000000e+00   5.000000000000e+00   6.000000000000e+00   7.000000000000e+00   8.000000000000e+00 
  9.000000000000e+00   1.000000000000e+01   1.100000000000e+01   1.200000000000e+01   1.300000000000e+01   1.400000000000e+01   1.500000000000e+01   1.600000000000e+01   1.700000000000e+01 
  1.800000000000e+01   1.900000000000e+01 
Y_COORDINATES 20 float
  0.000000000000e+00   1.000000000000e+00   2.000000000000e+00   3.000000000000e+00   4.000000000000e+00   5.000000000000e+00   6.000000000000e+00   7.000000000000e+00   8.000000000000e+00 
  9.000000000000e+00   1.000000000000e+01   1.100000000000e+01   1.200000000000e+01   1.300000000000e+01   1.400000000000e+01   1.500000000000e+01   1.600000000000e+01   1.700000000000e+01 
  1.800000000000e+01   1.900000000000e+01 
Z_COORDINATES 20 float
  0.000000000000e+00   1.000000000000e+00   2.000000000000e+00   3.000000000000e+00   4.000000000000e+00   5.000000000000e+00   6.000000000000e+00   7.000000000000e+00   8.000000000000e+00 
  9.000000000000e+00   1.000000000000e+01   1.100000000000e+01   1.200000000000e+01   1.300000000000e+01   1.400000000000e+01   1.500000000000e+01   1.600000000000e+01   1.700000000000e+01 
  1.800000000000e+01   1.900000000000e+01 
CELL_DATA 6859
POINT_DATA 8000
SCALARS pressure float
LOOKUP_TABLE default
  0.000000000000e+00   0.000000000000e+00   0.000000000000e+00   0.000000000000e+00   0.000000000000e+00   0.000000000000e+00   0.000000000000e+00   0.000000000000e+00   0.000000000000e+00 
  0.000000000000e+00   0.000000000000e+00   0.000000000000e+00   0.000000000000e+00   0.000000000000e+00   0.000000000000e+00   0.000000000000e+00   0.000000000000e+00   0.000000000000e+00 
  0.000000000000e+00   0.000000000000e+00   0.000000000000e+00   0.000000000000e+00   0.000000000000e+00   0.000000000000e+00   0.000000000000e+00   0.000000000000e+00   0.000000000000e+00 
  0.000000000000e+00   0.000000000000e+00   0.000000000000e+00   0.000000000000e+00   0.000000000000e+00   0.000000000000e+00   0.000000000000e+00   0.000000000000e+00   0.000000000000e+00 
  0.000000000000e+00   0.000000000000e+00   0.000000000000e+00   0.000000000000e+00   0.000000000000e+00   0.000000000000e+00   0.000000000000e+00   0.000000000000e+00   0.000000000000e+00 
  0.000000000000e+00   0.000000000000e+00   0.000000000000e+00   0.000000000000e+00   0.000000000000e+00   0.000000000000e+00   0.000000000000e+00   0.000000000000e+00   0.000000000000e+00 
  0.000000000000e+00   0.000000000000e+00   0.000000000000e+00   0.000000000000e+00   0.000000000000e+00   0.000000000000e+00   0.000000000000e+00   0.000000000000e+00   0.000000000000e+00 
  0.000000000000e+00   0.000000000000e+00   0.000000000000e+00   0.000000000000e+00   0.000000000000e+00   0.000000000000e+00   0.000000000000e+00   0.000000000000e+00   0.000000000000e+00 
  0.000000000000e+00   0.000000000000e+00   0.000000000000e+00   0.000000000000e+00   0.000000000000e+00   0.000000000000e+00   0.000000000000e+00   0.000000000000e+00   0.000000000000e+00 
  0.000000000000e+00   0.000000000000e+00   0.000000000000e+00   0.000000000000e+00   0.000000000000e+00   0.000000000000e+00   0.000000000000e+00   0.000000000000e+00   0.000000000000e+00 
  0.000000000000e+00   0.000000000000e+00   0.000000000000e+00   0.000000000000e+00   0.000000000000e+00   0.000000000000e+00   0.000000000000e+00   0.000000000000e+00   0.000000000000e+00 
  0.000000000000e+00   0.000000000000e+00   0.000000000000e+00   0.000000000000e+00   0.000000000000e+00   0.000000000000e+00   0.000000000000e+00   0.000000000000e+00   0.000000000000e+00 
  0.000000000000e+00   0.000000000000e+00   0.000000000000e+00   0.000000000000e+00   0.000000000000e+00   0.000000000000e+00   0.000000000000e+00   0.000000000000e+00   0.000000000000e+00 
  0.000000000000e+00   0.000000000000e+00   0.000000000000e+00   0.000000000000e+00   0.000000000000e+00   0.000000000000e+00   0.000000000000e+00   0.000000000000e+00   0.000000000000e+00 
  0.000000000000e+00   0.000000000000e+00   0.000000000000e+00   0.000000000000e+00   0.000000000000e+00   0.000000000000e+00   0.000000000000e+00   0.000000000000e+00   0.000000000000e+00 
  0.000000000000e+00   0.000000000000e+00   0.000000000000e+00   0.000000000000e+00   0.000000000000e+00   0.000000000000e+00   0.000000000000e+00   0.000000000000e+00   0.000000000000e+00 
  0.000000000000e+00   0.000000000000e+00   0.000000000000e+00   0.000000000000e+00   0.000000000000e+00   0.000000000000e+00   0.000000000000e+00   0.000000000000e+00   0.000000000000e+00 
  0.000000000000e+00   0.000000000000e+00   0.000000000000e+00   0.000000000000e+00   0.000000000000e+00   0.000000000000e+00   0.000000000000e+00   0.000000000000e+00   0.000000000000e+00 
  0.000000000000e+00   0.000000000000e+00   0.000000000000e+00   0.000000000000e+00   0.000000000000e+00   0.000000000000e+00   0.000000000000e+00   0.000000000000e+00   0.000000000000e+00 
  0.000000000000e+00   0.000000000000e+00   0.000000000000e+00   0.000000000000e+00   0.000000000000e+00   0.000000000000e+00   0.000000000000e+00   0.000000000000e+00   0.000000000000e+00 
  0.000000000000e+00   0.000000000000e+00   0.000000000000e+00   0.000000000000e+00   0.000000000000e+00   0.000000000000e+00   0.000000000000e+00   0.000000000000e+00   0.000000000000e+00 
  0.000000000000e+00   0.000000000000e+00   0.000000000000e+00   0.000000000000e+00   0.000000000000e+00   0.000000000000e+00   0.000000000000e+00   0.000000000000e+00   0.000000000000e+00 
  0.000000000000e+00   0.000000000000e+00   0.000000000000e+00   0.000000000000e+00   0.000000000000e+00   0.000000000000e+00   0.000000000000e+00   0.000000000000e+00   0.000000000000e+00 
  0.000000000000e+00   0.000000000000e+00   0.000000000000e+00   0.000000000000e+00   0.000000000000e+00   0.000000000000e+00   0.000000000000e+00   0.000000000000e+00   0.000000000000e+00 
  0.000000000000e+00   0.000000000000e+00   0.000000000000e+00   0.000000000000e+00   0.000000000000e+00   0.000000000000e+00   0.000000000000e+00   0.000000000000e+00   0.000000000000e+00 
  0.000000000000e+00   0.000000000000e+00   0.000000000000e+00   0.000000000000e+00   0.000000000000e+00   0.000000000000e+00   0.000000000000e+00   0.000000000000e+00   0.000000000000e+00 
  0.000000000000e+00   0.000000000000e+00   0.000000000000e+00   0.000000000000e+00   0.000000000000e+00   0.000000000000e+00   0.000000000000e+00   0.000000000000e+00   0.000000000000e+00 
  0.000000000000e+00   0.000000000000e+00   0.000000000000e+00   0.000000000000e+00   0.000000000000e+00   0.000000000000e+00   0.000000000000e+00   0.000000000000e+00   0.000000000000e+00 
  0.000000000000e+00   0.000000000000e+00   0.000000000000e+00   0.000000000000e+00   0.000000000000e+00   0.000000000000e+00   0.000000000000e+00   0.000000000000e+00   0.000000000000e+00 
  0.000000000000e+00   0.000000000000e+00   0.000000000000e+00   0.000000000000e+00   0.000000000000e+00   0.000000000000e+00   0.000000000000e+00   0.000000000000e+00   0.000000000000e+00 
  0.000000000000e+00   0.000000000000e+00   0.000000000000e+00   0.000000000000e+00   0.000000000000e+00   0.000000000000e+00   0.000000000000e+00   0.000000000000e+00   0.000000000000e+00 
  0.000000000000e+00   0.000000000000e+00   0.000000000000e+00   0.000000000000e+00   0.000000000000e+00   0.000000000000e+00   0.000000000000e+00   0.000000000000e+00   0.000000000000e+00 
  0.000000000000e+00   0.000000000000e+00   0.000000000000e+00   0.000000000000e+00   0.000000000000e+00   0.000000000000e+00   0.000000000000e+00   0.000000000000e+00   0.000000000000e+00 
  0.000000000000e+00   0.000000000000e+00   0.000000000000e+00   0.000000000000e+00   0.000000000000e+00   0.000000000000e+00   0.000000000000e+00   0.000000000000e+00   0.000000000000e+00 
  0.000000000000e+00   0.000000000000e+00   0.000000000000e+00   0.000000000000e+00   0.000000000000e+00   0.000000000000e+00   0.000000000000e+00   0.000000000000e+00   0.000000000000e+00 
  0.000000000000e+00   0.000000000000e+00   0.000000000000e+00   0.000000000000e+00   0.000000000000e+00   0.000000000000e+00   0.000000000000e+00   0.000000000000e+00   0.000000000000e+00 
  0.000000000000e+00   0.000000000000e+00   0.000000000000e+00   0.000000000000e+00   0.000000000000e+00   0.000000000000e+00   0.000000000000e+00   0.000000000000e+00   0.000000000000e+00 
  0.000000000000e+00   0.000000000000e+00   0.000000000000e+00   0.000000000000e+00   0.000000000000e+00   0.000000000000e+00   0.000000000000e+00   0.000000000000e+00   0.000000000000e+00 
  0.000000000000e+00   0.000000000000e+00   0.000000000000e+00   0.000000000000e+00   0.000000000000e+00   0.000000000000e+00   0.000000000000e+00   0.000000000000e+00   0.000000000000e+00 
  0.000000000000e+00   0.000000000000e+00   0.000000000000e+00   0.000000000000e+00   0.000000000000e+00   0.000000000000e+00   0.000000000000e+00   0.000000000000e+00   0.000000000000e+00 
  0.000000000000e+00   0.000000000000e+00   0.000000000000e+00   0.000000000000e+00   0.000000000000e+00   0.000000000000e+00   0.000000000000e+00   0.000000000000e+00   0.000000000000e+00 
  0.000000000000e+00   0.000000000000e+00   0.000000000000e+00   0.000000000000e+00   0.000000000000e+00   0.000000000000e+00   0.000000000000e+00   0.000000000000e+00   0.000000000000e+00 
  0.000000000000e+00   0.000000000000e+00   0.000000000000e+00   0.000000000000e+00   0.000000000000e+00   0.000000000000e+00   0.000000000000e+00   0.000000000000e+00   0.000000000000e+00 
  0.000000000000e+00   0.000000000000e+00   0.000000000000e+00   0.000000000000e+00   0.000000000000e+00   0.000000000000e+00   0.000000000000e+00   0.000000000000e+00   0.000000000000e+00 
  0.000000000000e+00   0.000000000000e+00   0.000000000000e+00   0.000000000000e+00   0.000000000000e+00   0.000000000000e+00   0.000000000000e+00   0.000000000000e+00   0.000000000000e+00 
  0.000000000000e+00   0.000000000000e+00   0.000000000000e+00   0.000000000000e+00   0.000000000000e+00   0.000000000000e+00   0.000000000000e+00   0.000000000000e+00   0.000000000000e+00 
  0.000000000000e+00   0.000000000000e+00   0.000000000000e+00   0.000000000000e+00   0.000000000000e+00   0.000000000000e+00   0.000000000000e+00   3.253505468369e+00   3.376043081284e+00 
  3.481972932816e+00   3.573693275452e+00   3.625833511353e+00   3.644199132919e+00   3.653496980667e+00   3.691200256348e+00   3.680340528488e+00   3.650908231735e+00   3.606642723083e+00 
  3.548851490021e+00   3.493279218674e+00   3.447299003601e+00   3.414221048355e+00   3.380701780319e+00   3.363519668579e+00   3.360710144043e+00   0.000000000000e+00   0.000000000000e+00 
  3.455492258072e+00   3.552352428436e+00   3.635496139526e+00   3.706472396851e+00   3.735805511475e+00   3.727318525314e+00   3.720690011978e+00   3.714445590973e+00   3.732211351395e+00 
  3.700748443604e+00   3.665544986725e+00   3.604074001312e+00   3.558999538422e+00   3.513276100159e+00   3.479727268219e+00   3.449989557266e+00   3.428485393524e+00   3.424932241440e+00 
  0.000000000000e+00   0.000000000000e+00   3.711735010147e+00   3.774565696716e+00   3.834316492081e+00   3.868745803833e+00   3.855695486069e+00   3.826157331467e+00   3.777715682983e+00 
  3.746311187744e+00   3.745408058167e+00   3.757546424866e+00   3.749791622162e+00   3.706611633301e+00   3.635156631470e+00   3.593530416489e+00   3.544432401657e+00   3.513324260712e+00 
  3.484714984894e+00   3.510054588318e+00   0.000000000000e+00   0.000000000000e+00   4.098670005798e+00   4.151683330536e+00   4.229955673218e+00   4.214236736298e+00   4.217941284180e+00 
  4.154476642609e+00   4.013771533966e+00   3.931415319443e+00   3.927575588226e+00   3.943347215652e+00   3.954221725464e+00   3.897098541260e+00   3.861596107483e+00   3.806683301926e+00 
  3.776883125305e+00   3.745339155197e+00   3.716999769211e+00   3.756136655807e+00   0.000000000000e+00   0.000000000000e+00   4.434942722321e+00   4.492059707642e+00   4.569033145905e+00 
  4.605982303619e+00   4.520431518555e+00   4.443451404572e+00   4.295447826385e+00   4.171830177307e+00   4.163265705109e+00   4.144120216370e+00   4.150459289551e+00   4.129347324371e+00 
  4.088564872742e+00   4.038832187653e+00   3.984372377396e+00   3.971066236496e+00   3.944084644318e+00   4.002184391022e+00   0.000000000000e+00   0.000000000000e+00   4.803787708282e+00 
  4.900904655457e+00   5.070633411407e+00   5.196349620819e+00   4.983623981476e+00   4.831324577332e+00   4.715346813202e+00   4.539881229401e+00   4.454668521881e+00   4.409236431122e+00 
  4.364750385284e+00   4.317080020905e+00   4.273947715759e+00   4.248468399048e+00   4.228889942169e+00   4.207786560059e+00   4.180266380310e+00   4.248998641968e+00   0.000000000000e+00 
  0.000000000000e+00   5.162941455841e+00   5.320065975189e+00   5.666740894318e+00   5.963542938232e+00   5.632467269897e+00   5.307317733765e+00   5.154126644135e+00   4.937877178192e+00 
  4.807720661163e+00   4.758090019226e+00   4.702905178070e+00   4.666237831116e+00   4.651526451111e+00   4.630745887756e+00   4.596295356750e+00   4.565443992615e+00   4.532772541046e+00 
  4.586629867554e+00   0.000000000000e+00   0.000000000000e+00   5.334062576294e+00   5.442406654358e+00   5.646293640137e+00   5.830454349518e+00   5.656491279602e+00   5.440727710724e+00 
  5.366036891937e+00   5.229137897491e+00   5.149724483490e+00   5.085978031158e+00   5.044972896576e+00   4.998824596405e+00   4.959788322449e+00   4.918334007263e+00   4.880802631378e+00 
  4.826588630676e+00   4.761633872986e+00   4.786183834076e+00   0.000000000000e+00   0.000000000000e+00   5.592856884003e+00   5.655446529388e+00   5.757739067078e+00   5.794845581055e+00 
  5.749342441559e+00   5.672834396362e+00   5.588344097137e+00   5.522922992706e+00   5.459724426270e+00   5.419021129608e+00   5.366064548492e+00   5.345196247101e+00   5.305671691895e+00 
  5.238215446472e+00   5.136039733887e+00   5.026126384735e+00   4.927970886230e+00   4.948091030121e+00   0.000000000000e+00   0.000000000000e+00   5.824228763580e+00   5.861355781555e+00 
  5.920521259308e+00   5.978769302368e+00   6.006463050842e+00   5.971703529358e+00   5.946371078491e+00   5.890684127808e+00   5.879139423370e+00   5.787931442261e+00   5.772412300110e+00 
  5.723723888397e+00   5.637001514435e+00   5.522037506104e+00   5.370974540710e+00   5.204622268677e+00   5.030066967010e+00   4.980105876923e+00   0.000000000000e+00   0.000000000000e+00 
  6.103383064270e+00   6.162507534027e+00   6.231885910034e+00   6.277217388153e+00   6.294615268707e+00   6.293655395508e+00   6.277624607086e+00   6.264882087708e+00   6.250451564789e+00 
  6.241055011749e+00   6.201621532440e+00   6.137012481689e+00   6.051473617554e+00   5.923571586609e+00   5.671887397766e+00   5.324472427368e+00   5.033553600311e+00   4.956421852112e+00 
  0.000000000000e+00   0.000000000000e+00   6.240860462189e+00   6.378079891205e+00   6.475968360901e+00   6.552987575531e+00   6.589079380035e+00   6.622928619385e+00   6.632184028625e+00 
  6.620172023773e+00   6.635089397430e+00   6.588678836823e+00   6.537540435791e+00   6.455799579620e+00   6.313246726990e+00   6.069230079651e+00   5.705443859100e+00   5.194961547852e+00 
  4.658454418182e+00   4.734677314758e+00   0.000000000000e+00   0.000000000000e+00   6.329358100891e+00   6.630635261536e+00   6.756079673767e+00   6.811037540436e+00   6.872075557709e+00 
  6.899446964264e+00   6.926551342010e+00   6.951320648193e+00   6.926752567291e+00   6.894859790802e+00   6.827635765076e+00   6.718080520630e+00   6.551113605499e+00   6.287197589874e+00 
  5.842260360718e+00   5.108159065247e+00   4.063364982605e+00   4.513522624969e+00   0.000000000000e+00   0.000000000000e+00   6.483847141266e+00   6.923754692078e+00   7.075047969818e+00 
  7.152426242828e+00   7.204480171204e+00   7.249710083008e+00   7.277212142944e+00   7.288876533508e+00   7.285236358643e+00   7.256755828857e+00   7.190271377563e+00   7.086289405823e+00 
  6.916557788849e+00   6.660982608795e+00   6.296468257904e+00   5.788474082947e+00   5.276442050934e+00   5.293427944183e+00   0.000000000000e+00   0.000000000000e+00   7.213548183441e+00 
  7.296861171722e+00   7.339466094971e+00   7.363214492798e+00   7.397173881531e+00   7.435290813446e+00   7.463220119476e+00   7.468299865723e+00   7.458734035492e+00   7.408519744873e+00 
  7.335690498352e+00   7.225019454956e+00   7.074521064758e+00   6.874542236328e+00   6.614099502563e+00   6.295374870300e+00   6.039731502533e+00   5.906735897064e+00   0.000000000000e+00 
  0.000000000000e+00   7.537458419800e+00   7.530974388123e+00   7.549112319946e+00   7.556560516357e+00   7.578121662140e+00   7.603288650513e+00   7.623268127441e+00   7.626771450043e+00 
  7.608892440796e+00   7.566039085388e+00   7.491478919983e+00   7.388665199280e+00   7.256582260132e+00   7.092520713806e+00   6.900185585022e+00   6.695838451385e+00   6.542919158936e+00 
  6.453473091125e+00   0.000000000000e+00   0.000000000000e+00   8.015718460083e+00   7.812602996826e+00   7.702371120453e+00   7.700768947601e+00   7.721543312073e+00   7.740138530731e+00 
  7.755403518677e+00   7.756705284119e+00   7.738333225250e+00   7.687853813171e+00   7.615108966827e+00   7.519862174988e+00   7.401778697968e+00   7.264266490936e+00   7.112226963043e+00 
  6.963767528534e+00   6.850656986237e+00   6.797710895538e+00   0.000000000000e+00   0.000000000000e+00   7.388788223267e+00   7.523351192474e+00   7.701024532318e+00   7.743138313293e+00 
  7.749223709106e+00   7.757683277130e+00   7.752082824707e+00   7.742175102234e+00   7.715202808380e+00   7.678923130035e+00   7.612307548523e+00   7.525924205780e+00   7.421792030334e+00 
  7.307162761688e+00   7.182352542877e+00   7.060165882111e+00   6.948685169220e+00   6.886811733246e+00   0.000000000000e+00   0.000000000000e+00   0.000000000000e+00   0.000000000000e+00 
  0.000000000000e+00   0.000000000000e+00   0.000000000000e+00   0.000000000000e+00   0.000000000000e+00   0.000000000000e+00   0.000000000000e+00   0.000000000000e+00   0.000000000000e+00 
  0.000000000000e+00   0.000000000000e+00   0.000000000000e+00   0.000000000000e+00   0.000000000000e+00   0.000000000000e+00   0.000000000000e+00   0.000000000000e+00   0.000000000000e+00 
  0.000000000000e+00   0.000000000000e+00   0.000000000000e+00   0.000000000000e+00   0.000000000000e+00   0.000000000000e+00   0.000000000000e+00   0.000000000000e+00   0.000000000000e+00 
  0.000000000000e+00   0.000000000000e+00   0.000000000000e+00   0.000000000000e+00   0.000000000000e+00   0.000000000000e+00   0.000000000000e+00   0.000000000000e+00   0.000000000000e+00 
  0.000000000000e+00   0.000000000000e+00   2.178499937057e+00   2.251189708710e+00   2.350864887238e+00   2.470817089081e+00   2.514706611633e+00   2.490914106369e+00   2.470535755157e+00 
  2.663912057877e+00   2.559819459915e+00   2.538280010223e+00   2.511501789093e+00   2.454009532928e+00   2.392689228058e+00   2.357821226120e+00   2.326903104782e+00   2.299542188644e+00 
  2.286671161652e+00   2.293859958649e+00   0.000000000000e+00   0.000000000000e+00   2.277690172195e+00   2.415863275528e+00   2.517020702362e+00   2.591678380966e+00   2.615200996399e+00 
  2.571580886841e+00   2.656342983246e+00   2.825087547302e+00   2.821031808853e+00   2.625292539597e+00   2.585461139679e+00   2.512631177902e+00   2.457391262054e+00   2.429216861725e+00 
  2.394981861115e+00   2.362348794937e+00   2.336827039719e+00   2.344179391861e+00   0.000000000000e+00   0.000000000000e+00   2.595619678497e+00   2.698009729385e+00   2.750067234039e+00 
  2.808114290237e+00   2.816274404526e+00   2.797824144363e+00   2.852154254913e+00   2.853011608124e+00   2.760687589645e+00   2.724230766296e+00   2.719081163406e+00   2.626072645187e+00 
  2.546811342239e+00   2.512420892715e+00   2.462903022766e+00   2.419367790222e+00   2.397509336472e+00   2.416243553162e+00   0.000000000000e+00   0.000000000000e+00   2.922963380814e+00 
  2.993870973587e+00   3.079459190369e+00   3.103008031845e+00   3.068403244019e+00   2.954152345657e+00   2.882361888885e+00   2.713717699051e+00   2.829125881195e+00   2.846158266068e+00 
  2.826857089996e+00   2.753981828690e+00   2.700175762177e+00   2.668903112411e+00   2.651411294937e+00   2.615952253342e+00   2.600811004639e+00   2.636711120605e+00   0.000000000000e+00 
  0.000000000000e+00   3.422486782074e+00   3.487513303757e+00   3.544710159302e+00   3.554525136948e+00   3.554861545563e+00   3.410161495209e+00   3.413967370987e+00   3.073282480240e+00 
  3.180954694748e+00   3.167861223221e+00   3.163301467896e+00   3.071440219879e+00   2.992157459259e+00   2.934420347214e+00   2.895181894302e+00   2.871249198914e+00   2.852370500565e+00 
  2.910842180252e+00   0.000000000000e+00   0.000000000000e+00   3.718348979950e+00   3.832866668701e+00   4.076664924622e+00   4.292385101318e+00   3.916465520859e+00   3.924992799759e+00 
  3.746311903000e+00   3.363866329193e+00   3.404012918472e+00   3.331977367401e+00   3.312152862549e+00   3.253808021545e+00   3.221405267715e+00   3.193608760834e+00   3.164882898331e+00 
  3.143908262253e+00   3.127461910248e+00   3.233490228653e+00   0.000000000000e+00   0.000000000000e+00   4.053948402405e+00   4.245383739471e+00   4.751540184021e+00   5.295925140381e+00 
  4.622508525848e+00   4.257573127747e+00   4.143775939941e+00   3.907730817795e+00   3.856229782104e+00   3.816936492920e+00   3.776041030884e+00   3.658195018768e+00   3.618019342422e+00 
  3.587659358978e+00   3.551569461823e+00   3.523460149765e+00   3.499419450760e+00   3.565553665161e+00   0.000000000000e+00   0.000000000000e+00   4.254868030548e+00   4.347569942474e+00 
  4.614300251007e+00   4.888987064362e+00   4.608885288239e+00   4.322955608368e+00   4.257001876831e+00   4.188675403595e+00   4.210177898407e+00   4.134972572327e+00   4.033369064331e+00 
  3.966384410858e+00   3.951068162918e+00   3.932825565338e+00   3.895539760590e+00   3.839860439301e+00   3.775432348251e+00   3.798434019089e+00   0.000000000000e+00   0.000000000000e+00 
  4.484117984772e+00   4.538984775543e+00   4.635384082794e+00   4.695839405060e+00   4.654237747192e+00   4.534488677979e+00   4.471361160278e+00   4.458886146545e+00   4.456393241882e+00 
  4.391335010529e+00   4.316720008850e+00   4.277496337891e+00   4.243983745575e+00   4.195614814758e+00   4.115254402161e+00   4.011755943298e+00   3.908303499222e+00   3.918868541718e+00 
  0.000000000000e+00   0.000000000000e+00   4.780477046967e+00   4.827614784241e+00   4.890858650208e+00   4.957048892975e+00   4.991156101227e+00   4.965110778809e+00   4.895237445831e+00 
  4.867447376251e+00   4.863882541656e+00   4.808076858521e+00   4.792123794556e+00   4.772874832153e+00   4.746024131775e+00   4.636010169983e+00   4.489470958710e+00   4.311444282532e+00 
  4.131735324860e+00   4.109942436218e+00   0.000000000000e+00   0.000000000000e+00   5.145638465881e+00   5.148829460144e+00   5.209438323975e+00   5.264147758484e+00   5.303933143616e+00 
  5.295722484589e+00   5.281088352203e+00   5.278127193451e+00   5.281573772430e+00   5.270925521851e+00   5.230738162994e+00   5.192928314209e+00   5.134373664856e+00   5.067752838135e+00 
  4.805830955505e+00   4.414072036743e+00   4.054697513580e+00   4.039580821991e+00   0.000000000000e+00   0.000000000000e+00   5.472846031189e+00   5.450381755829e+00   5.506448268890e+00 
  5.584999084473e+00   5.648757457733e+00   5.675905227661e+00   5.677106857300e+00   5.689261913300e+00   5.697437763214e+00   5.688429355621e+00   5.650942802429e+00   5.583186626434e+00 
  5.471879482269e+00   5.267340183258e+00   4.897313594818e+00   4.272787570953e+00   3.362086534500e+00   3.765680074692e+00   0.000000000000e+00   0.000000000000e+00   5.773848533630e+00 
  5.794106960297e+00   5.824130535126e+00   5.866350650787e+00   5.927039146423e+00   5.969367504120e+00   6.009835720062e+00   6.036982059479e+00   6.036545753479e+00   6.000432014465e+00 
  5.942741394043e+00   5.837071895599e+00   5.680637359619e+00   5.423614025116e+00   4.933061122894e+00   3.796095848083e+00   6.879458904266e+00   3.154805183411e+00   0.000000000000e+00 
  0.000000000000e+00   6.165143966675e+00   6.134313583374e+00   6.130715847015e+00   6.176417827606e+00   6.226909160614e+00   6.285420417786e+00   6.328961849213e+00   6.349563121796e+00 
  6.347587108612e+00   6.326207160950e+00   6.263229846954e+00   6.156960487366e+00   6.003393173218e+00   5.761627197266e+00   5.385589122772e+00   4.783491134644e+00   3.907948255539e+00 
  4.285899162292e+00   0.000000000000e+00   0.000000000000e+00   6.471109390259e+00   6.417218685150e+00   6.406219482422e+00   6.418608665466e+00   6.453809261322e+00   6.498976707458e+00 
  6.539078235626e+00   6.561644077301e+00   6.553728580475e+00   6.503991127014e+00   6.429633140564e+00   6.321041107178e+00   6.178672313690e+00   5.989204883575e+00   5.737679004669e+00 
  5.412085056305e+00   5.126987934113e+00   5.021049499512e+00   0.000000000000e+00   0.000000000000e+00   6.623252868652e+00   6.612068176270e+00   6.605145454407e+00   6.609277725220e+00 
  6.630999565125e+00   6.662830829620e+00   6.690718650818e+00   6.701498508453e+00   6.686024665833e+00   6.641277313232e+00   6.567019462585e+00   6.466234207153e+00   6.339897155762e+00 
  6.185634613037e+00   6.004937171936e+00   5.808280467987e+00   5.664268493652e+00   5.548147201538e+00   0.000000000000e+00   0.000000000000e+00   6.905475139618e+00   6.826530933380e+00 
  6.756330966949e+00   6.757915496826e+00   6.775910854340e+00   6.798872947693e+00   6.821850776672e+00   6.831951141357e+00   6.809617519379e+00   6.759845733643e+00   6.686271667480e+00 
  6.591793060303e+00   6.477003097534e+00   6.345716476440e+00   6.200400829315e+00   6.058888912201e+00   5.947598457336e+00   5.903681278229e+00   0.000000000000e+00   0.000000000000e+00 
  6.617343902588e+00   6.677178382874e+00   6.789548397064e+00   6.806779384613e+00   6.811571121216e+00   6.818062305450e+00   6.819372177124e+00   6.813466072083e+00   6.792890071869e+00 
  6.749086380005e+00   6.687321186066e+00   6.602646350861e+00   6.499579906464e+00   6.388285160065e+00   6.271071434021e+00   6.155972480774e+00   6.053011894226e+00   5.990252971649e+00 
  0.000000000000e+00   0.000000000000e+00   0.000000000000e+00   0.000000000000e+00   0.000000000000e+00   0.000000000000e+00   0.000000000000e+00   0.000000000000e+00   0.000000000000e+00 
  0.000000000000e+00   0.000000000000e+00   0.000000000000e+00   0.000000000000e+00   0.000000000000e+00   0.000000000000e+00   0.000000000000e+00   0.000000000000e+00   0.000000000000e+00 
  0.000000000000e+00   0.000000000000e+00   0.000000000000e+00   0.000000000000e+00   0.000000000000e+00   0.000000000000e+00   0.000000000000e+00   0.000000000000e+00   0.000000000000e+00 
  0.000000000000e+00   0.000000000000e+00   0.000000000000e+00   0.000000000000e+00   0.000000000000e+00   0.000000000000e+00   0.000000000000e+00   0.000000000000e+00   0.000000000000e+00 
  0.000000000000e+00   0.000000000000e+00   0.000000000000e+00   0.000000000000e+00   0.000000000000e+00   0.000000000000e+00   5.301566123962e-01   1.070855855942e+00   1.282753467560e+00 
  1.373797178268e+00   1.371755123138e+00   1.340532898903e+00   1.289563059807e+00   1.023078441620e+00   1.307406783104e+00   1.468710541725e+00   1.450691819191e+00   1.374995708466e+00 
  1.300257086754e+00   1.254034161568e+00   1.208426713943e+00   1.180258393288e+00   1.155329942703e+00   1.184751152992e+00   0.000000000000e+00   0.000000000000e+00  -1.889836192131e-01 
  1.071680665016e+00   1.423149466515e+00   1.505818128586e+00   1.497130870819e+00   1.330583810806e+00   1.052984237671e+00   7.471364736557e-01   1.248509049416e+00   1.562945842743e+00 
  1.566696286201e+00   1.426898360252e+00   1.353017210960e+00   1.313280463219e+00   1.261320471764e+00   1.257299065590e+00   1.193289399147e+00   1.233222603798e+00   0.000000000000e+00 
  0.000000000000e+00   1.238149285316e+00   1.518115282059e+00   1.634621381760e+00   1.618149280548e+00   1.622901678085e+00   1.382126331329e+00   1.000821232796e+00   8.111159801483e-01 
  1.208626389503e+00   1.536286354065e+00   1.768921613693e+00   1.519633531570e+00   1.445943117142e+00   1.454368710518e+00   1.388755917549e+00   1.314841508865e+00   1.277551651001e+00 
  1.313883423805e+00   0.000000000000e+00   0.000000000000e+00   1.764550685883e+00   1.924406170845e+00   1.970641493797e+00   1.898150205612e+00   1.866014599800e+00   1.560617327690e+00 
  1.265920400620e+00   8.319473862648e-01   1.216341376305e+00   1.471052646637e+00   1.830739498138e+00   1.591709852219e+00   1.551276087761e+00   1.528747320175e+00   1.497062206268e+00 
  1.461707472801e+00   1.447511434555e+00   1.472956299782e+00   0.000000000000e+00   0.000000000000e+00   2.302948713303e+00   2.367680072784e+00   2.383239507675e+00   2.320560693741e+00 
  1.822517871857e+00   1.459767341614e+00   1.572170138359e+00   1.328937411308e+00   1.237577199936e+00   1.272351503372e+00   1.701143622398e+00   1.674528479576e+00   1.728449463844e+00 
  1.717704892159e+00   1.679243803024e+00   1.651126146317e+00   1.622857213020e+00   1.728571534157e+00   0.000000000000e+00   0.000000000000e+00   2.601190328598e+00   2.679049968719e+00 
  2.773373603821e+00   2.795442581177e+00   1.875476360321e+00   2.184255599976e+00   2.405050754547e+00   1.802856683731e+00   1.861427307129e+00   2.064261674881e+00   2.344310998917e+00 
  2.182678937912e+00   2.131713151932e+00   2.115337610245e+00   2.099028348923e+00   2.084698200226e+00   2.134644269943e+00   2.414475440979e+00   0.000000000000e+00   0.000000000000e+00 