# vtk DataFile Version 2.0
Written using VisIt writer
ASCII
DATASET RECTILINEAR_GRID
DIMENSIONS 20 20 20
X_COORDINATES 20 float
  0.000000000000e+00   1.000000000000e+00   2.000000000000e+00   3.000000000000e+00   4.000000000000e+00   5.000000000000e+00   6.000000000000e+00   7.000000000000e+00   8.000000000000e+00 
  9.000000000000e+00   1.000000000000e+01   1.100000000000e+01   1.200000000000e+01   1.300000000000e+01   1.400000000000e+01   1.500000000000e+01   1.600000000000e+01   1.700000000000e+01 
  1.800000000000e+01   1.900000000000e+01 
Y_COORDINATES 20 float
  0.000000000000e+00   1.000000000000e+00   2.000000000000e+00   3.000000000000e+00   4.000000000000e+00   5.000000000000e+00   6.000000000000e+00   7.000000000000e+00   8.000000000000e+00 
  9.000000000000e+00   1.000000000000e+01   1.100000000000e+01   1.200000000000e+01   1.300000000000e+01   1.400000000000e+01   1.500000000000e+01   1.600000000000e+01   1.700000000000e+01 
  1.800000000000e+01   1.900000000000e+01 
Z_COORDINATES 20 float
  0.000000000000e+00   1.000000000000e+00   2.000000000000e+00   3.000000000000e+00   4.000000000000e+00   5.000000000000e+00   6.000000000000e+00   7.000000000000e+00   8.000000000000e+00 
  9.000000000000e+00   1.000000000000e+01   1.100000000000e+01   1.200000000000e+01   1.300000000000e+01   1.400000000000e+01   1.500000000000e+01   1.600000000000e+01   1.700000000000e+01 
  1.800000000000e+01   1.900000000000e+01 
CELL_DATA 6859
POINT_DATA 8000
SCALARS pressure float
LOOKUP_TABLE default
  0.000000000000e+00   0.000000000000e+00   0.000000000000e+00   0.000000000000e+00   0.000000000000e+00   0.000000000000e+00   0.000000000000e+00   0.000000000000e+00   0.000000000000e+00 
  0.000000000000e+00   0.000000000000e+00   0.000000000000e+00   0.000000000000e+00   0.000000000000e+00   0.000000000000e+00   0.000000000000e+00   0.000000000000e+00   0.000000000000e+00 
  0.000000000000e+00   0.000000000000e+00   0.000000000000e+00   0.000000000000e+00   0.000000000000e+00   0.000000000000e+00   0.000000000000e+00   0.000000000000e+00   0.000000000000e+00 
  0.000000000000e+00   0.000000000000e+00   0.000000000000e+00   0.000000000000e+00   0.000000000000e+00   0.000000000000e+00   0.000000000000e+00   0.000000000000e+00   0.000000000000e+00 
  0.000000000000e+00   0.000000000000e+00   0.000000000000e+00   0.000000000000e+00   0.000000000000e+00   0.000000000000e+00   0.000000000000e+00   0.000000000000e+00   0.000000000000e+00 
  0.000000000000e+00   0.000000000000e+00   0.000000000000e+00   0.000000000000e+00   0.000000000000e+00   0.000000000000e+00   0.000000000000e+00   0.000000000000e+00   0.000000000000e+00 
  0.000000000000e+00   0.000000000000e+00   0.000000000000e+00   0.000000000000e+00   0.000000000000e+00   0.000000000000e+00   0.000000000000e+00   0.000000000000e+00   0.000000000000e+00 
  0.000000000000e+00   0.000000000000e+00   0.000000000000e+00   0.000000000000e+00   0.000000000000e+00   0.000000000000e+00   0.000000000000e+00   0.000000000000e+00   0.000000000000e+00 
  0.000000000000e+00   0.000000000000e+00   0.000000000000e+00   0.000000000000e+00   0.000000000000e+00   0.000000000000e+00   0.000000000000e+00   0.000000000000e+00   0.000000000000e+00 
  0.000000000000e+00   0.000000000000e+00   0.000000000000e+00   0.000000000000e+00   0.000000000000e+00   0.000000000000e+00   0.000000000000e+00   0.000000000000e+00   0.000000000000e+00 
  0.000000000000e+00   0.000000000000e+00   0.000000000000e+00   0.000000000000e+00   0.000000000000e+00   0.000000000000e+00   0.000000000000e+00   0.000000000000e+00   0.000000000000e+00 
  0.000000000000e+00   0.000000000000e+00   0.000000000000e+00   0.000000000000e+00   0.000000000000e+00   0.000000000000e+00   0.000000000000e+00   0.000000000000e+00   0.000000000000e+00 
  0.000000000000e+00   0.000000000000e+00   0.000000000000e+00   0.000000000000e+00   0.000000000000e+00   0.000000000000e+00   0.000000000000e+00   0.000000000000e+00   0.000000000000e+00 
  0.000000000000e+00   0.000000000000e+00   0.000000000000e+00   0.000000000000e+00   0.000000000000e+00   0.000000000000e+00   0.000000000000e+00   0.000000000000e+00   0.000000000000e+00 
  0.000000000000e+00   0.000000000000e+00   0.000000000000e+00   0.000000000000e+00   0.000000000000e+00   0.000000000000e+00   0.000000000000e+00   0.000000000000e+00   0.000000000000e+00 
  0.000000000000e+00   0.000000000000e+00   0.000000000000e+00   0.000000000000e+00   0.000000000000e+00   0.000000000000e+00   0.000000000000e+00   0.000000000000e+00   0.000000000000e+00 
  0.000000000000e+00   0.000000000000e+00   0.000000000000e+00   0.000000000000e+00   0.000000000000e+00   0.000000000000e+00   0.000000000000e+00   0.000000000000e+00   0.000000000000e+00 
  0.000000000000e+00   0.000000000000e+00   0.000000000000e+00   0.000000000000e+00   0.000000000000e+00   0.000000000000e+00   0.000000000000e+00   0.000000000000e+00   0.000000000000e+00 
  0.000000000000e+00   0.000000000000e+00   0.000000000000e+00   0.000000000000e+00   0.000000000000e+00   0.000000000000e+00   0.000000000000e+00   0.000000000000e+00   0.000000000000e+00 
  0.000000000000e+00   0.000000000000e+00   0.000000000000e+00   0.000000000000e+00   0.000000000000e+00   0.000000000000e+00   0.000000000000e+00   0.000000000000e+00   0.000000000000e+00 
  0.000000000000e+00   0.000000000000e+00   0.000000000000e+00   0.000000000000e+00   0.000000000000e+00   0.000000000000e+00   0.000000000000e+00   0.000000000000e+00   0.000000000000e+00 
  0.000000000000e+00   0.000000000000e+00   0.000000000000e+00   0.000000000000e+00   0.000000000000e+00   0.000000000000e+00   0.000000000000e+00   0.000000000000e+00   0.000000000000e+00 
  0.000000000000e+00   0.000000000000e+00   0.000000000000e+00   0.000000000000e+00   0.000000000000e+00   0.000000000000e+00   0.000000000000e+00   0.000000000000e+00   0.000000000000e+00 
  0.000000000000e+00   0.000000000000e+00   0.000000000000e+00   0.000000000000e+00   0.000000000000e+00   0.000000000000e+00   0.000000000000e+00   0.000000000000e+00   0.000000000000e+00 
  0.000000000000e+00   0.000000000000e+00   0.000000000000e+00   0.000000000000e+00   0.000000000000e+00   0.000000000000e+00   0.000000000000e+00   0.000000000000e+00   0.000000000000e+00 
  0.000000000000e+00   0.000000000000e+00   0.000000000000e+00   0.000000000000e+00   0.000000000000e+00   0.000000000000e+00   0.000000000000e+00   0.000000000000e+00   0.000000000000e+00 
  0.000000000000e+00   0.000000000000e+00   0.000000000000e+00   0.000000000000e+00   0.000000000000e+00   0.000000000000e+00   0.000000000000e+00   0.000000000000e+00   0.000000000000e+00 
  0.000000000000e+00   0.000000000000e+00   0.000000000000e+00   0.000000000000e+00   0.000000000000e+00   0.000000000000e+00   0.000000000000e+00   0.000000000000e+00   0.000000000000e+00 
  0.000000000000e+00   0.000000000000e+00   0.000000000000e+00   0.000000000000e+00   0.000000000000e+00   0.000000000000e+00   0.000000000000e+00   0.000000000000e+00   0.000000000000e+00 
  0.000000000000e+00   0.000000000000e+00   0.000000000000e+00   0.000000000000e+00   0.000000000000e+00   0.000000000000e+00   0.000000000000e+00   0.000000000000e+00   0.000000000000e+00 
  0.000000000000e+00   0.000000000000e+00   0.000000000000e+00   0.000000000000e+00   0.000000000000e+00   0.000000000000e+00   0.000000000000e+00   0.000000000000e+00   0.000000000000e+00 
  0.000000000000e+00   0.000000000000e+00   0.000000000000e+00   0.000000000000e+00   0.000000000000e+00   0.000000000000e+00   0.000000000000e+00   0.000000000000e+00   0.000000000000e+00 
  0.000000000000e+00   0.000000000000e+00   0.000000000000e+00   0.000000000000e+00   0.000000000000e+00   0.000000000000e+00   0.000000000000e+00   0.000000000000e+00   0.000000000000e+00 
  0.000000000000e+00   0.000000000000e+00   0.000000000000e+00   0.000000000000e+00   0.000000000000e+00   0.000000000000e+00   0.000000000000e+00   0.000000000000e+00   0.000000000000e+00 
  0.000000000000e+00   0.000000000000e+00   0.000000000000e+00   0.000000000000e+00   0.000000000000e+00   0.000000000000e+00   0.000000000000e+00   0.000000000000e+00   0.000000000000e+00 
  0.000000000000e+00   0.000000000000e+00   0.000000000000e+00   0.000000000000e+00   0.000000000000e+00   0.000000000000e+00   0.000000000000e+00   0.000000000000e+00   0.000000000000e+00 
  0.000000000000e+00   0.000000000000e+00   0.000000000000e+00   0.000000000000e+00   0.000000000000e+00   0.000000000000e+00   0.000000000000e+00   0.000000000000e+00   0.000000000000e+00 
  0.000000000000e+00   0.000000000000e+00   0.000000000000e+00   0.000000000000e+00   0.000000000000e+00   0.000000000000e+00   0.000000000000e+00   0.000000000000e+00   0.000000000000e+00 
  0.000000000000e+00   0.000000000000e+00   0.000000000000e+00   0.000000000000e+00   0.000000000000e+00   0.000000000000e+00   0.000000000000e+00   0.000000000000e+00   0.000000000000e+00 
  0.000000000000e+00   0.000000000000e+00   0.000000000000e+00   0.000000000000e+00   0.000000000000e+00   0.000000000000e+00   0.000000000000e+00   0.000000000000e+00   0.000000000000e+00 
  0.000000000000e+00   0.000000000000e+00   0.000000000000e+00   0.000000000000e+00   0.000000000000e+00   0.000000000000e+00   0.000000000000e+00   0.000000000000e+00   0.000000000000e+00 
  0.000000000000e+00   0.000000000000e+00   0.000000000000e+00   0.000000000000e+00   0.000000000000e+00   0.000000000000e+00   0.000000000000e+00   0.000000000000e+00   0.000000000000e+00 
  0.000000000000e+00   0.000000000000e+00   0.000000000000e+00   0.000000000000e+00   0.000000000000e+00   0.000000000000e+00   0.000000000000e+00   0.000000000000e+00   0.000000000000e+00 
  0.000000000000e+00   0.000000000000e+00   0.000000000000e+00   0.000000000000e+00   0.000000000000e+00   0.000000000000e+00   0.000000000000e+00   0.000000000000e+00   0.000000000000e+00 
  0.000000000000e+00   0.000000000000e+00   0.000000000000e+00   0.000000000000e+00   0.000000000000e+00   0.000000000000e+00   0.000000000000e+00   0.000000000000e+00   0.000000000000e+00 
  0.000000000000e+00   0.000000000000e+00   0.000000000000e+00   0.000000000000e+00   0.000000000000e+00   0.000000000000e+00   0.000000000000e+00   0.000000000000e+00   0.000000000000e+00 
  0.000000000000e+00   0.000000000000e+00   0.000000000000e+00   0.000000000000e+00   0.000000000000e+00   0.000000000000e+00   0.000000000000e+00   6.444071292877e+00   6.444061756134e+00 
  6.444044589996e+00   6.444023132324e+00   6.443999767303e+00   6.443976879120e+00   6.443956375122e+00   6.443938255310e+00   6.443922996521e+00   6.443910121918e+00   6.443900108337e+00 
  6.443892002106e+00   6.443885326385e+00   6.443880558014e+00   6.443876743317e+00   6.443874359131e+00   6.443872451782e+00   6.443871498108e+00   0.000000000000e+00   0.000000000000e+00 
  6.344206333160e+00   6.344193935394e+00   6.344172000885e+00   6.344145298004e+00   6.344117164612e+00   6.344090938568e+00   6.344067573547e+00   6.344048023224e+00   6.344031810760e+00 
  6.344018936157e+00   6.344008445740e+00   6.344000339508e+00   6.343993663788e+00   6.343988895416e+00   6.343985080719e+00   6.343982696533e+00   6.343980789185e+00   6.343980312347e+00 
  0.000000000000e+00   0.000000000000e+00   6.141640186310e+00   6.141619682312e+00   6.141585350037e+00   6.141546249390e+00   6.141508102417e+00   6.141474246979e+00   6.141446113586e+00 
  6.141423225403e+00   6.141405582428e+00   6.141391277313e+00   6.141380786896e+00   6.141372203827e+00   6.141366004944e+00   6.141360759735e+00   6.141357421875e+00   6.141355037689e+00 
  6.141353130341e+00   6.141352653503e+00   0.000000000000e+00   0.000000000000e+00   5.829954147339e+00   5.829915046692e+00   5.829854011536e+00   5.829789638519e+00   5.829731941223e+00 
  5.829685211182e+00   5.829649448395e+00   5.829622268677e+00   5.829602241516e+00   5.829586982727e+00   5.829576015472e+00   5.829567432404e+00   5.829561233521e+00   5.829556465149e+00 
  5.829553127289e+00   5.829550743103e+00   5.829549312592e+00   5.829548358917e+00   0.000000000000e+00   0.000000000000e+00   5.398393630981e+00   5.398309230804e+00   5.398189067841e+00 
  5.398075103760e+00   5.397984504700e+00   5.397918224335e+00   5.397871971130e+00   5.397839069366e+00   5.397816658020e+00   5.397800445557e+00   5.397789001465e+00   5.397780895233e+00 
  5.397774696350e+00   5.397770404816e+00   5.397767066956e+00   5.397765159607e+00   5.397763729095e+00   5.397763252258e+00   0.000000000000e+00   0.000000000000e+00   4.829943656921e+00 
  4.829737186432e+00   4.829479694366e+00   4.829269886017e+00   4.829125404358e+00   4.829032421112e+00   4.828973293304e+00   4.828935623169e+00   4.828911304474e+00   4.828894615173e+00 
  4.828883647919e+00   4.828876018524e+00   4.828870296478e+00   4.828866481781e+00   4.828863620758e+00   4.828861713409e+00   4.828860759735e+00   4.828859806061e+00   0.000000000000e+00 
  0.000000000000e+00   4.097423553467e+00   4.096849918365e+00   4.096256256104e+00   4.095866203308e+00   4.095642566681e+00   4.095518112183e+00   4.095448493958e+00   4.095408439636e+00 
  4.095384120941e+00   4.095368862152e+00   4.095358848572e+00   4.095352172852e+00   4.095347404480e+00   4.095344066620e+00   4.095341682434e+00   4.095340251923e+00   4.095339298248e+00 
  4.095338821411e+00   0.000000000000e+00   0.000000000000e+00   3.154781818390e+00   3.152962446213e+00   3.151515245438e+00   3.150820732117e+00   3.150508880615e+00   3.150365114212e+00 
  3.150294780731e+00   3.150258064270e+00   3.150237560272e+00   3.150225400925e+00   3.150217771530e+00   3.150212764740e+00   3.150209426880e+00   3.150207042694e+00   3.150205373764e+00 
  3.150204420090e+00   3.150203704834e+00   3.150203466415e+00   0.000000000000e+00   0.000000000000e+00   1.936187386513e+00   1.929593563080e+00   1.925978302956e+00   1.924986124039e+00 
  1.924671530724e+00   1.924556016922e+00   1.924507379532e+00   1.924484252930e+00   1.924472212791e+00   1.924465298653e+00   1.924461007118e+00   1.924458384514e+00   1.924456596375e+00 
  1.924455404282e+00   1.924454569817e+00   1.924453973770e+00   1.924453616142e+00   1.924453496933e+00   0.000000000000e+00   0.000000000000e+00   0.000000000000e+00   0.000000000000e+00 
  0.000000000000e+00   0.000000000000e+00   0.000000000000e+00   0.000000000000e+00   0.000000000000e+00   0.000000000000e+00   0.000000000000e+00   0.000000000000e+00   0.000000000000e+00 
  0.000000000000e+00   0.000000000000e+00   0.000000000000e+00   0.000000000000e+00   0.000000000000e+00   0.000000000000e+00   0.000000000000e+00   0.000000000000e+00   0.000000000000e+00 
  0.000000000000e+00   0.000000000000e+00   0.000000000000e+00   0.000000000000e+00   0.000000000000e+00   0.000000000000e+00   0.000000000000e+00   0.000000000000e+00   0.000000000000e+00 
  0.000000000000e+00   0.000000000000e+00   0.000000000000e+00   0.000000000000e+00   0.000000000000e+00   0.000000000000e+00   0.000000000000e+00   0.000000000000e+00   0.000000000000e+00 
  0.000000000000e+00   0.000000000000e+00   0.000000000000e+00   0.000000000000e+00   0.000000000000e+00   0.000000000000e+00   0.000000000000e+00   0.000000000000e+00   0.000000000000e+00 
  0.000000000000e+00   0.000000000000e+00   0.000000000000e+00   0.000000000000e+00   0.000000000000e+00   0.000000000000e+00   0.000000000000e+00   0.000000000000e+00   0.000000000000e+00 
  0.000000000000e+00   0.000000000000e+00   0.000000000000e+00   0.000000000000e+00   0.000000000000e+00   0.000000000000e+00   0.000000000000e+00   0.000000000000e+00   0.000000000000e+00 
  0.000000000000e+00   0.000000000000e+00   0.000000000000e+00   0.000000000000e+00   0.000000000000e+00   0.000000000000e+00   0.000000000000e+00   0.000000000000e+00   0.000000000000e+00 
  0.000000000000e+00   0.000000000000e+00   0.000000000000e+00   0.000000000000e+00   0.000000000000e+00   0.000000000000e+00   0.000000000000e+00   0.000000000000e+00   0.000000000000e+00 
  0.000000000000e+00   0.000000000000e+00   0.000000000000e+00   0.000000000000e+00   0.000000000000e+00   0.000000000000e+00   0.000000000000e+00   0.000000000000e+00   0.000000000000e+00 
  0.000000000000e+00   0.000000000000e+00   0.000000000000e+00   0.000000000000e+00   0.000000000000e+00   0.000000000000e+00   0.000000000000e+00   0.000000000000e+00   0.000000000000e+00 
  0.000000000000e+00   0.000000000000e+00   0.000000000000e+00   0.000000000000e+00   0.000000000000e+00   0.000000000000e+00   0.000000000000e+00   0.000000000000e+00   0.000000000000e+00 
  0.000000000000e+00   0.000000000000e+00   0.000000000000e+00   0.000000000000e+00   0.000000000000e+00   0.000000000000e+00   0.000000000000e+00   0.000000000000e+00   0.000000000000e+00 
  0.000000000000e+00   0.000000000000e+00   0.000000000000e+00   0.000000000000e+00   0.000000000000e+00   0.000000000000e+00   0.000000000000e+00   0.000000000000e+00   0.000000000000e+00 
  0.000000000000e+00   0.000000000000e+00   0.000000000000e+00   0.000000000000e+00   0.000000000000e+00   0.000000000000e+00   0.000000000000e+00   0.000000000000e+00   0.000000000000e+00 
  0.000000000000e+00   0.000000000000e+00   0.000000000000e+00   0.000000000000e+00   0.000000000000e+00   0.000000000000e+00   0.000000000000e+00   0.000000000000e+00   0.000000000000e+00 
  0.000000000000e+00   0.000000000000e+00   0.000000000000e+00   0.000000000000e+00   0.000000000000e+00   0.000000000000e+00   0.000000000000e+00   0.000000000000e+00   0.000000000000e+00 
  0.000000000000e+00   0.000000000000e+00   0.000000000000e+00   0.000000000000e+00   0.000000000000e+00   0.000000000000e+00   0.000000000000e+00   0.000000000000e+00   0.000000000000e+00 
  0.000000000000e+00   0.000000000000e+00   0.000000000000e+00   0.000000000000e+00   0.000000000000e+00   0.000000000000e+00   0.000000000000e+00   0.000000000000e+00   0.000000000000e+00 
  0.000000000000e+00   0.000000000000e+00   0.000000000000e+00   0.000000000000e+00   0.000000000000e+00   0.000000000000e+00   0.000000000000e+00   0.000000000000e+00   0.000000000000e+00 
  0.000000000000e+00   0.000000000000e+00   0.000000000000e+00   0.000000000000e+00   0.000000000000e+00   0.000000000000e+00   0.000000000000e+00   0.000000000000e+00   0.000000000000e+00 
  0.000000000000e+00   0.000000000000e+00   0.000000000000e+00   0.000000000000e+00   0.000000000000e+00   0.000000000000e+00   0.000000000000e+00   0.000000000000e+00   0.000000000000e+00 
  0.000000000000e+00   0.000000000000e+00   0.000000000000e+00   0.000000000000e+00   0.000000000000e+00   0.000000000000e+00   0.000000000000e+00   0.000000000000e+00   0.000000000000e+00 
  0.000000000000e+00   0.000000000000e+00   0.000000000000e+00   0.000000000000e+00   0.000000000000e+00   0.000000000000e+00   0.000000000000e+00   0.000000000000e+00   0.000000000000e+00 
  0.000000000000e+00   0.000000000000e+00   5.542809963226e+00   5.542801380157e+00   5.542786598206e+00   5.542767047882e+00   5.542746067047e+00   5.542725563049e+00   5.542706489563e+00 
  5.542689800262e+00   5.542675495148e+00   5.542663574219e+00   5.542653560638e+00   5.542645931244e+00   5.542639732361e+00   5.542634963989e+00   5.542631626129e+00   5.542629241943e+00 
  5.542627334595e+00   5.542626857758e+00   0.000000000000e+00   0.000000000000e+00   5.445885658264e+00   5.445874691010e+00   5.445856094360e+00   5.445832729340e+00   5.445807933807e+00 
  5.445784568787e+00   5.445763111115e+00   5.445745468140e+00   5.445730209351e+00   5.445717811584e+00   5.445708274841e+00   5.445700168610e+00   5.445693969727e+00   5.445689201355e+00 
  5.445685863495e+00   5.445683479309e+00   5.445682048798e+00   5.445681095123e+00   0.000000000000e+00   0.000000000000e+00   5.249563217163e+00   5.249547004700e+00   5.249518871307e+00 
  5.249485492706e+00   5.249452590942e+00   5.249423027039e+00   5.249398231506e+00   5.249377727509e+00   5.249361038208e+00   5.249348163605e+00   5.249337673187e+00   5.249330043793e+00 
  5.249323844910e+00   5.249319076538e+00   5.249315738678e+00   5.249313354492e+00   5.249311923981e+00   5.249310970306e+00   0.000000000000e+00   0.000000000000e+00   4.948328495026e+00 
  4.948299407959e+00   4.948252201080e+00   4.948200702667e+00   4.948153495789e+00   4.948113918304e+00   4.948082447052e+00   4.948058605194e+00   4.948040008545e+00   4.948026180267e+00 
  4.948015689850e+00   4.948008060455e+00   4.948001861572e+00   4.947997570038e+00   4.947994232178e+00   4.947991847992e+00   4.947990417480e+00   4.947989940643e+00   0.000000000000e+00 
  0.000000000000e+00   4.533219337463e+00   4.533163070679e+00   4.533078670502e+00   4.532994270325e+00   4.532923221588e+00   4.532869338989e+00   4.532829761505e+00   4.532801628113e+00 
  4.532781600952e+00   4.532766819000e+00   4.532756328583e+00   4.532748699188e+00   4.532742977142e+00   4.532738685608e+00   4.532735824585e+00   4.532733440399e+00   4.532732009888e+00 
  4.532731533051e+00   0.000000000000e+00   0.000000000000e+00   3.990826368332e+00   3.990710020065e+00   3.990551471710e+00   3.990410327911e+00   3.990305185318e+00   3.990232706070e+00 
  3.990184545517e+00   3.990152597427e+00   3.990131139755e+00   3.990116357803e+00   3.990106344223e+00   3.990098953247e+00   3.990093946457e+00   3.990090131760e+00   3.990087509155e+00 
  3.990085601807e+00   3.990084648132e+00   3.990083932877e+00   0.000000000000e+00   0.000000000000e+00   3.301835298538e+00   3.301585674286e+00   3.301287412643e+00   3.301058292389e+00 
  3.300909519196e+00   3.300818920135e+00   3.300764322281e+00   3.300731182098e+00   3.300710201263e+00   3.300696849823e+00   3.300687789917e+00   3.300681591034e+00   3.300677061081e+00 
  3.300674200058e+00   3.300672054291e+00   3.300670385361e+00   3.300669670105e+00   3.300669193268e+00   0.000000000000e+00   0.000000000000e+00   2.439576148987e+00   2.439066410065e+00 
  2.438545465469e+00   2.438213586807e+00   2.438031435013e+00   2.437934398651e+00   2.437882184982e+00   2.437852621078e+00   2.437835454941e+00   2.437824726105e+00   2.437817811966e+00 
  2.437813282013e+00   2.437810182571e+00   2.437807798386e+00   2.437806367874e+00   2.437805414200e+00   2.437804698944e+00   2.437804460526e+00   0.000000000000e+00   0.000000000000e+00 
  1.385663032532e+00   1.385014414787e+00   1.384395718575e+00   1.384059667587e+00   1.383906126022e+00   1.383835434914e+00   1.383800983429e+00   1.383782982826e+00   1.383772969246e+00 
  1.383767008781e+00   1.383763313293e+00   1.383760809898e+00   1.383759140968e+00   1.383757948875e+00   1.383757233620e+00   1.383756637573e+00   1.383756279945e+00   1.383756160736e+00 
  0.000000000000e+00   0.000000000000e+00   0.000000000000e+00   0.000000000000e+00   0.000000000000e+00   0.000000000000e+00   0.000000000000e+00   0.000000000000e+00   0.000000000000e+00 
  0.000000000000e+00   0.000000000000e+00   0.000000000000e+00   0.000000000000e+00   0.000000000000e+00   0.000000000000e+00   0.000000000000e+00   0.000000000000e+00   0.000000000000e+00 
  0.000000000000e+00   0.000000000000e+00   0.000000000000e+00   0.000000000000e+00   0.000000000000e+00   0.000000000000e+00   0.000000000000e+00   0.000000000000e+00   0.000000000000e+00 
  0.000000000000e+00   0.000000000000e+00   0.000000000000e+00   0.000000000000e+00   0.000000000000e+00   0.000000000000e+00   0.000000000000e+00   0.000000000000e+00   0.000000000000e+00 
  0.000000000000e+00   0.000000000000e+00   0.000000000000e+00   0.000000000000e+00   0.000000000000e+00   0.000000000000e+00   0.000000000000e+00   0.000000000000e+00   0.000000000000e+00 
  0.000000000000e+00   0.000000000000e+00   0.000000000000e+00   0.000000000000e+00   0.000000000000e+00   0.000000000000e+00   0.000000000000e+00   0.000000000000e+00   0.000000000000e+00 
  0.000000000000e+00   0.000000000000e+00   0.000000000000e+00   0.000000000000e+00   0.000000000000e+00   0.000000000000e+00   0.000000000000e+00   0.000000000000e+00   0.000000000000e+00 
  0.000000000000e+00   0.000000000000e+00   0.000000000000e+00   0.000000000000e+00   0.000000000000e+00   0.000000000000e+00   0.000000000000e+00   0.000000000000e+00   0.000000000000e+00 
  0.000000000000e+00   0.000000000000e+00   0.000000000000e+00   0.000000000000e+00   0.000000000000e+00   0.000000000000e+00   0.000000000000e+00   0.000000000000e+00   0.000000000000e+00 
  0.000000000000e+00   0.000000000000e+00   0.000000000000e+00   0.000000000000e+00   0.000000000000e+00   0.000000000000e+00   0.000000000000e+00   0.000000000000e+00   0.000000000000e+00 
  0.000000000000e+00   0.000000000000e+00   0.000000000000e+00   0.000000000000e+00   0.000000000000e+00   0.000000000000e+00   0.000000000000e+00   0.000000000000e+00   0.000000000000e+00 
  0.000000000000e+00   0.000000000000e+00   0.000000000000e+00   0.000000000000e+00   0.000000000000e+00   0.000000000000e+00   0.000000000000e+00   0.000000000000e+00   0.000000000000e+00 
  0.000000000000e+00   0.000000000000e+00   0.000000000000e+00   0.000000000000e+00   0.000000000000e+00   0.000000000000e+00   0.000000000000e+00   0.000000000000e+00   0.000000000000e+00 
  0.000000000000e+00   0.000000000000e+00   0.000000000000e+00   0.000000000000e+00   0.000000000000e+00   0.000000000000e+00   0.000000000000e+00   0.000000000000e+00   0.000000000000e+00 
  0.000000000000e+00   0.000000000000e+00   0.000000000000e+00   0.000000000000e+00   0.000000000000e+00   0.000000000000e+00   0.000000000000e+00   0.000000000000e+00   0.000000000000e+00 
  0.000000000000e+00   0.000000000000e+00   0.000000000000e+00   0.000000000000e+00   0.000000000000e+00   0.000000000000e+00   0.000000000000e+00   0.000000000000e+00   0.000000000000e+00 
  0.000000000000e+00   0.000000000000e+00   0.000000000000e+00   0.000000000000e+00   0.000000000000e+00   0.000000000000e+00   0.000000000000e+00   0.000000000000e+00   0.000000000000e+00 
  0.000000000000e+00   0.000000000000e+00   0.000000000000e+00   0.000000000000e+00   0.000000000000e+00   0.000000000000e+00   0.000000000000e+00   0.000000000000e+00   0.000000000000e+00 
  0.000000000000e+00   0.000000000000e+00   0.000000000000e+00   0.000000000000e+00   0.000000000000e+00   0.000000000000e+00   0.000000000000e+00   0.000000000000e+00   0.000000000000e+00 
  0.000000000000e+00   0.000000000000e+00   0.000000000000e+00   0.000000000000e+00   0.000000000000e+00   0.000000000000e+00   0.000000000000e+00   0.000000000000e+00   0.000000000000e+00 
  0.000000000000e+00   0.000000000000e+00   0.000000000000e+00   0.000000000000e+00   0.000000000000e+00   0.000000000000e+00   0.000000000000e+00   0.000000000000e+00   0.000000000000e+00 
  0.000000000000e+00   0.000000000000e+00   0.000000000000e+00   0.000000000000e+00   0.000000000000e+00   0.000000000000e+00   0.000000000000e+00   0.000000000000e+00   0.000000000000e+00 
  0.000000000000e+00   0.000000000000e+00   0.000000000000e+00   0.000000000000e+00   0.000000000000e+00   0.000000000000e+00   0.000000000000e+00   0.000000000000e+00   0.000000000000e+00 
  0.000000000000e+00   0.000000000000e+00   0.000000000000e+00   0.000000000000e+00   0.000000000000e+00   0.000000000000e+00   0.000000000000e+00   0.000000000000e+00   0.000000000000e+00 
  0.000000000000e+00   0.000000000000e+00   0.000000000000e+00   0.000000000000e+00   0.000000000000e+00   0.000000000000e+00   4.737597465515e+00   4.737590789795e+00   4.737578868866e+00 
  4.737563610077e+00   4.737546443939e+00   4.737529277802e+00   4.737513542175e+00   4.737498760223e+00   4.737486362457e+00   4.737475872040e+00   4.737467288971e+00   4.737460136414e+00 
  4.737454891205e+00   4.737450599670e+00   4.737447261810e+00   4.737444877625e+00   4.737443447113e+00   4.737442493439e+00   0.000000000000e+00   0.000000000000e+00   4.646199226379e+00 
  4.646191596985e+00   4.646177291870e+00   4.646159648895e+00   4.646140098572e+00   4.646121025085e+00   4.646103858948e+00   4.646088600159e+00   4.646075725555e+00   4.646064758301e+00 
  4.646056175232e+00   4.646049022675e+00   4.646043300629e+00   4.646039009094e+00   4.646035671234e+00   4.646033287048e+00   4.646031856537e+00   4.646031379700e+00   0.000000000000e+00 
  0.000000000000e+00   4.461534976959e+00   4.461524486542e+00   4.461505413055e+00   4.461482048035e+00   4.461457729340e+00   4.461434841156e+00   4.461414813995e+00   4.461398124695e+00 
  4.461384296417e+00   4.461372852325e+00   4.461363792419e+00   4.461357116699e+00   4.461351394653e+00   4.461347103119e+00   4.461344242096e+00   4.461341857910e+00   4.461340427399e+00 
  4.461339473724e+00   0.000000000000e+00   0.000000000000e+00   4.179556846619e+00   4.179541110992e+00   4.179513454437e+00   4.179481029510e+00   4.179449081421e+00   4.179420471191e+00 
  4.179396629333e+00   4.179377555847e+00   4.179362773895e+00   4.179350852966e+00   4.179341793060e+00   4.179334640503e+00   4.179329395294e+00   4.179325580597e+00   4.179322242737e+00 
  4.179320335388e+00   4.179318904877e+00   4.179318428040e+00   0.000000000000e+00   0.000000000000e+00   3.794049978256e+00   3.794026374817e+00   3.793986320496e+00   3.793940782547e+00 
  3.793898105621e+00   3.793862581253e+00   3.793834447861e+00   3.793812990189e+00   3.793797016144e+00   3.793784856796e+00   3.793775796890e+00   3.793769121170e+00   3.793763875961e+00 
  3.793760299683e+00   3.793757438660e+00   3.793755531311e+00   3.793754339218e+00   3.793753623962e+00   0.000000000000e+00   0.000000000000e+00   3.296593427658e+00   3.296565055847e+00 
  3.296512842178e+00   3.296452760696e+00   3.296398401260e+00   3.296355485916e+00   3.296323537827e+00   3.296300649643e+00   3.296284198761e+00   3.296272277832e+00   3.296263694763e+00 
  3.296257495880e+00   3.296252965927e+00   3.296249628067e+00   3.296247243881e+00   3.296245574951e+00   3.296244382858e+00   3.296243906021e+00   0.000000000000e+00   0.000000000000e+00 