# vtk DataFile Version 2.0
Written using VisIt writer
ASCII
DATASET RECTILINEAR_GRID
DIMENSIONS 20 20 20
X_COORDINATES 20 float
  0.000000000000e+00   1.000000000000e+00   2.000000000000e+00   3.000000000000e+00   4.000000000000e+00   5.000000000000e+00   6.000000000000e+00   7.000000000000e+00   8.000000000000e+00 
  9.000000000000e+00   1.000000000000e+01   1.100000000000e+01   1.200000000000e+01   1.300000000000e+01   1.400000000000e+01   1.500000000000e+01   1.600000000000e+01   1.700000000000e+01 
  1.800000000000e+01   1.900000000000e+01 
Y_COORDINATES 20 float
  0.000000000000e+00   1.000000000000e+00   2.000000000000e+00   3.000000000000e+00   4.000000000000e+00   5.000000000000e+00   6.000000000000e+00   7.000000000000e+00   8.000000000000e+00 
  9.000000000000e+00   1.000000000000e+01   1.100000000000e+01   1.200000000000e+01   1.300000000000e+01   1.400000000000e+01   1.500000000000e+01   1.600000000000e+01   1.700000000000e+01 
  1.800000000000e+01   1.900000000000e+01 
Z_COORDINATES 20 float
  0.000000000000e+00   1.000000000000e+00   2.000000000000e+00   3.000000000000e+00   4.000000000000e+00   5.000000000000e+00   6.000000000000e+00   7.000000000000e+00   8.000000000000e+00 
  9.000000000000e+00   1.000000000000e+01   1.100000000000e+01   1.200000000000e+01   1.300000000000e+01   1.400000000000e+01   1.500000000000e+01   1.600000000000e+01   1.700000000000e+01 
  1.800000000000e+01   1.900000000000e+01 
CELL_DATA 6859
POINT_DATA 8000
SCALARS pressure float
LOOKUP_TABLE default
  0.000000000000e+00   0.000000000000e+00   0.000000000000e+00   0.000000000000e+00   0.000000000000e+00   0.000000000000e+00   0.000000000000e+00   0.000000000000e+00   0.000000000000e+00 
  0.000000000000e+00   0.000000000000e+00   0.000000000000e+00   0.000000000000e+00   0.000000000000e+00   0.000000000000e+00   0.000000000000e+00   0.000000000000e+00   0.000000000000e+00 
  0.000000000000e+00   0.000000000000e+00   0.000000000000e+00   0.000000000000e+00   0.000000000000e+00   0.000000000000e+00   0.000000000000e+00   0.000000000000e+00   0.000000000000e+00 
  0.000000000000e+00   0.000000000000e+00   0.000000000000e+00   0.000000000000e+00   0.000000000000e+00   0.000000000000e+00   0.000000000000e+00   0.000000000000e+00   0.000000000000e+00 
  0.000000000000e+00   0.000000000000e+00   0.000000000000e+00   0.000000000000e+00   0.000000000000e+00   0.000000000000e+00   0.000000000000e+00   0.000000000000e+00   0.000000000000e+00 
  0.000000000000e+00   0.000000000000e+00   0.000000000000e+00   0.000000000000e+00   0.000000000000e+00   0.000000000000e+00   0.000000000000e+00   0.000000000000e+00   0.000000000000e+00 
  0.000000000000e+00   0.000000000000e+00   0.000000000000e+00   0.000000000000e+00   0.000000000000e+00   0.000000000000e+00   0.000000000000e+00   0.000000000000e+00   0.000000000000e+00 
  0.000000000000e+00   0.000000000000e+00   0.000000000000e+00   0.000000000000e+00   0.000000000000e+00   0.000000000000e+00   0.000000000000e+00   0.000000000000e+00   0.000000000000e+00 
  0.000000000000e+00   0.000000000000e+00   0.000000000000e+00   0.000000000000e+00   0.000000000000e+00   0.000000000000e+00   0.000000000000e+00   0.000000000000e+00   0.000000000000e+00 
  0.000000000000e+00   0.000000000000e+00   0.000000000000e+00   0.000000000000e+00   0.000000000000e+00   0.000000000000e+00   0.000000000000e+00   0.000000000000e+00   0.000000000000e+00 
  0.000000000000e+00   0.000000000000e+00   0.000000000000e+00   0.000000000000e+00   0.000000000000e+00   0.000000000000e+00   0.000000000000e+00   0.000000000000e+00   0.000000000000e+00 
  0.000000000000e+00   0.000000000000e+00   0.000000000000e+00   0.000000000000e+00   0.000000000000e+00   0.000000000000e+00   0.000000000000e+00   0.000000000000e+00   0.000000000000e+00 
  0.000000000000e+00   0.000000000000e+00   0.000000000000e+00   0.000000000000e+00   0.000000000000e+00   0.000000000000e+00   0.000000000000e+00   0.000000000000e+00   0.000000000000e+00 
  0.000000000000e+00   0.000000000000e+00   0.000000000000e+00   0.000000000000e+00   0.000000000000e+00   0.000000000000e+00   0.000000000000e+00   0.000000000000e+00   0.000000000000e+00 
  0.000000000000e+00   0.000000000000e+00   0.000000000000e+00   0.000000000000e+00   0.000000000000e+00   0.000000000000e+00   0.000000000000e+00   0.000000000000e+00   0.000000000000e+00 
  0.000000000000e+00   0.000000000000e+00   0.000000000000e+00   0.000000000000e+00   0.000000000000e+00   0.000000000000e+00   0.000000000000e+00   0.000000000000e+00   0.000000000000e+00 
  0.000000000000e+00   0.000000000000e+00   0.000000000000e+00   0.000000000000e+00   0.000000000000e+00   0.000000000000e+00   0.000000000000e+00   0.000000000000e+00   0.000000000000e+00 
  0.000000000000e+00   0.000000000000e+00   0.000000000000e+00   0.000000000000e+00   0.000000000000e+00   0.000000000000e+00   0.000000000000e+00   0.000000000000e+00   0.000000000000e+00 
  0.000000000000e+00   0.000000000000e+00   0.000000000000e+00   0.000000000000e+00   0.000000000000e+00   0.000000000000e+00   0.000000000000e+00   0.000000000000e+00   0.000000000000e+00 
  0.000000000000e+00   0.000000000000e+00   0.000000000000e+00   0.000000000000e+00   0.000000000000e+00   0.000000000000e+00   0.000000000000e+00   0.000000000000e+00   0.000000000000e+00 
  0.000000000000e+00   0.000000000000e+00   0.000000000000e+00   0.000000000000e+00   0.000000000000e+00   0.000000000000e+00   0.000000000000e+00   0.000000000000e+00   0.000000000000e+00 
  0.000000000000e+00   0.000000000000e+00   0.000000000000e+00   0.000000000000e+00   0.000000000000e+00   0.000000000000e+00   0.000000000000e+00   0.000000000000e+00   0.000000000000e+00 
  0.000000000000e+00   0.000000000000e+00   0.000000000000e+00   0.000000000000e+00   0.000000000000e+00   0.000000000000e+00   0.000000000000e+00   0.000000000000e+00   0.000000000000e+00 
  0.000000000000e+00   0.000000000000e+00   0.000000000000e+00   0.000000000000e+00   0.000000000000e+00   0.000000000000e+00   0.000000000000e+00   0.000000000000e+00   0.000000000000e+00 
  0.000000000000e+00   0.000000000000e+00   0.000000000000e+00   0.000000000000e+00   0.000000000000e+00   0.000000000000e+00   0.000000000000e+00   0.000000000000e+00   0.000000000000e+00 
  0.000000000000e+00   0.000000000000e+00   0.000000000000e+00   0.000000000000e+00   0.000000000000e+00   0.000000000000e+00   0.000000000000e+00   0.000000000000e+00   0.000000000000e+00 
  0.000000000000e+00   0.000000000000e+00   0.000000000000e+00   0.000000000000e+00   0.000000000000e+00   0.000000000000e+00   0.000000000000e+00   0.000000000000e+00   0.000000000000e+00 
  0.000000000000e+00   0.000000000000e+00   0.000000000000e+00   0.000000000000e+00   0.000000000000e+00   0.000000000000e+00   0.000000000000e+00   0.000000000000e+00   0.000000000000e+00 
  0.000000000000e+00   0.000000000000e+00   0.000000000000e+00   0.000000000000e+00   0.000000000000e+00   0.000000000000e+00   0.000000000000e+00   0.000000000000e+00   0.000000000000e+00 
  0.000000000000e+00   0.000000000000e+00   0.000000000000e+00   0.000000000000e+00   0.000000000000e+00   0.000000000000e+00   0.000000000000e+00   0.000000000000e+00   0.000000000000e+00 
  0.000000000000e+00   0.000000000000e+00   0.000000000000e+00   0.000000000000e+00   0.000000000000e+00   0.000000000000e+00   0.000000000000e+00   0.000000000000e+00   0.000000000000e+00 
  0.000000000000e+00   0.000000000000e+00   0.000000000000e+00   0.000000000000e+00   0.000000000000e+00   0.000000000000e+00   0.000000000000e+00   0.000000000000e+00   0.000000000000e+00 
  0.000000000000e+00   0.000000000000e+00   0.000000000000e+00   0.000000000000e+00   0.000000000000e+00   0.000000000000e+00   0.000000000000e+00   0.000000000000e+00   0.000000000000e+00 
  0.000000000000e+00   0.000000000000e+00   0.000000000000e+00   0.000000000000e+00   0.000000000000e+00   0.000000000000e+00   0.000000000000e+00   0.000000000000e+00   0.000000000000e+00 
  0.000000000000e+00   0.000000000000e+00   0.000000000000e+00   0.000000000000e+00   0.000000000000e+00   0.000000000000e+00   0.000000000000e+00   0.000000000000e+00   0.000000000000e+00 
  0.000000000000e+00   0.000000000000e+00   0.000000000000e+00   0.000000000000e+00   0.000000000000e+00   0.000000000000e+00   0.000000000000e+00   0.000000000000e+00   0.000000000000e+00 
  0.000000000000e+00   0.000000000000e+00   0.000000000000e+00   0.000000000000e+00   0.000000000000e+00   0.000000000000e+00   0.000000000000e+00   0.000000000000e+00   0.000000000000e+00 
  0.000000000000e+00   0.000000000000e+00   0.000000000000e+00   0.000000000000e+00   0.000000000000e+00   0.000000000000e+00   0.000000000000e+00   0.000000000000e+00   0.000000000000e+00 
  0.000000000000e+00   0.000000000000e+00   0.000000000000e+00   0.000000000000e+00   0.000000000000e+00   0.000000000000e+00   0.000000000000e+00   0.000000000000e+00   0.000000000000e+00 
  0.000000000000e+00   0.000000000000e+00   0.000000000000e+00   0.000000000000e+00   0.000000000000e+00   0.000000000000e+00   0.000000000000e+00   0.000000000000e+00   0.000000000000e+00 
  0.000000000000e+00   0.000000000000e+00   0.000000000000e+00   0.000000000000e+00   0.000000000000e+00   0.000000000000e+00   0.000000000000e+00   0.000000000000e+00   0.000000000000e+00 
  0.000000000000e+00   0.000000000000e+00   0.000000000000e+00   0.000000000000e+00   0.000000000000e+00   0.000000000000e+00   0.000000000000e+00   0.000000000000e+00   0.000000000000e+00 
  0.000000000000e+00   0.000000000000e+00   0.000000000000e+00   0.000000000000e+00   0.000000000000e+00   0.000000000000e+00   0.000000000000e+00   0.000000000000e+00   0.000000000000e+00 
  0.000000000000e+00   0.000000000000e+00   0.000000000000e+00   0.000000000000e+00   0.000000000000e+00   0.000000000000e+00   0.000000000000e+00   0.000000000000e+00   0.000000000000e+00 
  0.000000000000e+00   0.000000000000e+00   0.000000000000e+00   0.000000000000e+00   0.000000000000e+00   0.000000000000e+00   0.000000000000e+00   0.000000000000e+00   0.000000000000e+00 
  0.000000000000e+00   0.000000000000e+00   0.000000000000e+00   0.000000000000e+00   0.000000000000e+00   0.000000000000e+00   0.000000000000e+00   0.000000000000e+00   0.000000000000e+00 
  0.000000000000e+00   0.000000000000e+00   0.000000000000e+00   0.000000000000e+00   0.000000000000e+00   0.000000000000e+00   0.000000000000e+00   6.760289669037e+00   6.760111808777e+00 
  6.759780406952e+00   6.759335994720e+00   6.758825778961e+00   6.758292675018e+00   6.757770538330e+00   6.757281780243e+00   6.756841182709e+00   6.756454467773e+00   6.756122589111e+00 
  6.755843162537e+00   6.755613327026e+00   6.755428791046e+00   6.755285739899e+00   6.755181789398e+00   6.755113124847e+00   6.755082607269e+00   0.000000000000e+00   0.000000000000e+00 
  6.665068626404e+00   6.664855480194e+00   6.664462566376e+00   6.663946151733e+00   6.663365364075e+00   6.662771224976e+00   6.662201404572e+00   6.661678791046e+00   6.661214828491e+00 
  6.660813331604e+00   6.660472869873e+00   6.660189151764e+00   6.659957408905e+00   6.659772396088e+00   6.659629821777e+00   6.659525871277e+00   6.659457683563e+00   6.659427165985e+00 
  0.000000000000e+00   0.000000000000e+00   6.472651004791e+00   6.472352027893e+00   6.471814155579e+00   6.471129894257e+00   6.470390796661e+00   6.469665050507e+00   6.468996047974e+00 
  6.468403816223e+00   6.467894077301e+00   6.467464447021e+00   6.467108249664e+00   6.466816902161e+00   6.466581821442e+00   6.466396331787e+00   6.466254711151e+00   6.466151714325e+00 
  6.466084957123e+00   6.466054916382e+00   0.000000000000e+00   0.000000000000e+00   6.177994251251e+00   6.177518367767e+00   6.176689147949e+00   6.175685405731e+00   6.174660205841e+00 
  6.173710346222e+00   6.172880649567e+00   6.172181606293e+00   6.171605587006e+00   6.171138286591e+00   6.170762062073e+00   6.170462131500e+00   6.170225143433e+00   6.170041084290e+00 
  6.169901371002e+00   6.169801235199e+00   6.169736385345e+00   6.169707298279e+00   0.000000000000e+00   0.000000000000e+00   5.773320198059e+00   5.772474765778e+00   5.771061897278e+00 
  5.769463062286e+00   5.767949104309e+00   5.766646385193e+00   5.765584468842e+00   5.764743804932e+00   5.764087200165e+00   5.763577938080e+00   5.763184070587e+00   5.762879371643e+00 
  5.762644290924e+00   5.762465000153e+00   5.762331008911e+00   5.762236118317e+00   5.762174606323e+00   5.762147426605e+00   0.000000000000e+00   0.000000000000e+00   5.247711181641e+00 
  5.246037006378e+00   5.243382453918e+00   5.240646362305e+00   5.238306522369e+00   5.236477851868e+00   5.235110282898e+00   5.234104156494e+00   5.233366966248e+00   5.232824802399e+00 
  5.232423782349e+00   5.232124328613e+00   5.231899738312e+00   5.231731891632e+00   5.231608867645e+00   5.231522083282e+00   5.231466770172e+00   5.231442451477e+00   0.000000000000e+00 
  0.000000000000e+00   4.588538646698e+00   4.584810733795e+00   4.579229354858e+00   4.574205398560e+00   4.570487022400e+00   4.567926883698e+00   4.566207885742e+00   4.565051555634e+00 
  4.564263343811e+00   4.563717842102e+00   4.563333034515e+00   4.563056468964e+00   4.562855720520e+00   4.562708854675e+00   4.562602519989e+00   4.562529087067e+00   4.562482357025e+00 
  4.562461853027e+00   0.000000000000e+00   0.000000000000e+00   3.778852939606e+00   3.769852876663e+00   3.756758689880e+00   3.747028112411e+00   3.741173505783e+00   3.737758636475e+00 
  3.735759019852e+00   3.734549283981e+00   3.733790159225e+00   3.733297109604e+00   3.732967376709e+00   3.732739925385e+00   3.732579469681e+00   3.732464790344e+00   3.732383251190e+00 
  3.732327461243e+00   3.732292175293e+00   3.732276916504e+00   0.000000000000e+00   0.000000000000e+00   2.828136205673e+00   2.801298379898e+00   2.761667251587e+00   2.740503549576e+00 
  2.731960773468e+00   2.728010654449e+00   2.726071119308e+00   2.725035429001e+00   2.724442005157e+00   2.724082469940e+00   2.723854303360e+00   2.723703145981e+00   2.723599672318e+00 
  2.723527431488e+00   2.723477125168e+00   2.723442792892e+00   2.723421573639e+00   2.723412275314e+00   0.000000000000e+00   0.000000000000e+00   1.808011293411e+00   1.755740523338e+00 
  1.675925850868e+00   1.641152501106e+00   1.632451057434e+00   1.629581212997e+00   1.628430366516e+00   1.627889037132e+00   1.627606868744e+00   1.627447962761e+00   1.627352476120e+00 
  1.627291917801e+00   1.627251863480e+00   1.627224683762e+00   1.627206087112e+00   1.627193689346e+00   1.627186059952e+00   1.627182841301e+00   0.000000000000e+00   0.000000000000e+00 
  0.000000000000e+00   0.000000000000e+00   0.000000000000e+00   0.000000000000e+00   0.000000000000e+00   0.000000000000e+00   0.000000000000e+00   0.000000000000e+00   0.000000000000e+00 
  0.000000000000e+00   0.000000000000e+00   0.000000000000e+00   0.000000000000e+00   0.000000000000e+00   0.000000000000e+00   0.000000000000e+00   0.000000000000e+00   0.000000000000e+00 
  0.000000000000e+00   0.000000000000e+00   0.000000000000e+00   0.000000000000e+00   0.000000000000e+00   0.000000000000e+00   0.000000000000e+00   0.000000000000e+00   0.000000000000e+00 
  0.000000000000e+00   0.000000000000e+00   0.000000000000e+00   0.000000000000e+00   0.000000000000e+00   0.000000000000e+00   0.000000000000e+00   0.000000000000e+00   0.000000000000e+00 
  0.000000000000e+00   0.000000000000e+00   0.000000000000e+00   0.000000000000e+00   0.000000000000e+00   0.000000000000e+00   0.000000000000e+00   0.000000000000e+00   0.000000000000e+00 
  0.000000000000e+00   0.000000000000e+00   0.000000000000e+00   0.000000000000e+00   0.000000000000e+00   0.000000000000e+00   0.000000000000e+00   0.000000000000e+00   0.000000000000e+00 
  0.000000000000e+00   0.000000000000e+00   0.000000000000e+00   0.000000000000e+00   0.000000000000e+00   0.000000000000e+00   0.000000000000e+00   0.000000000000e+00   0.000000000000e+00 
  0.000000000000e+00   0.000000000000e+00   0.000000000000e+00   0.000000000000e+00   0.000000000000e+00   0.000000000000e+00   0.000000000000e+00   0.000000000000e+00   0.000000000000e+00 
  0.000000000000e+00   0.000000000000e+00   0.000000000000e+00   0.000000000000e+00   0.000000000000e+00   0.000000000000e+00   0.000000000000e+00   0.000000000000e+00   0.000000000000e+00 
  0.000000000000e+00   0.000000000000e+00   0.000000000000e+00   0.000000000000e+00   0.000000000000e+00   0.000000000000e+00   0.000000000000e+00   0.000000000000e+00   0.000000000000e+00 
  0.000000000000e+00   0.000000000000e+00   0.000000000000e+00   0.000000000000e+00   0.000000000000e+00   0.000000000000e+00   0.000000000000e+00   0.000000000000e+00   0.000000000000e+00 
  0.000000000000e+00   0.000000000000e+00   0.000000000000e+00   0.000000000000e+00   0.000000000000e+00   0.000000000000e+00   0.000000000000e+00   0.000000000000e+00   0.000000000000e+00 
  0.000000000000e+00   0.000000000000e+00   0.000000000000e+00   0.000000000000e+00   0.000000000000e+00   0.000000000000e+00   0.000000000000e+00   0.000000000000e+00   0.000000000000e+00 
  0.000000000000e+00   0.000000000000e+00   0.000000000000e+00   0.000000000000e+00   0.000000000000e+00   0.000000000000e+00   0.000000000000e+00   0.000000000000e+00   0.000000000000e+00 
  0.000000000000e+00   0.000000000000e+00   0.000000000000e+00   0.000000000000e+00   0.000000000000e+00   0.000000000000e+00   0.000000000000e+00   0.000000000000e+00   0.000000000000e+00 
  0.000000000000e+00   0.000000000000e+00   0.000000000000e+00   0.000000000000e+00   0.000000000000e+00   0.000000000000e+00   0.000000000000e+00   0.000000000000e+00   0.000000000000e+00 
  0.000000000000e+00   0.000000000000e+00   0.000000000000e+00   0.000000000000e+00   0.000000000000e+00   0.000000000000e+00   0.000000000000e+00   0.000000000000e+00   0.000000000000e+00 
  0.000000000000e+00   0.000000000000e+00   0.000000000000e+00   0.000000000000e+00   0.000000000000e+00   0.000000000000e+00   0.000000000000e+00   0.000000000000e+00   0.000000000000e+00 
  0.000000000000e+00   0.000000000000e+00   0.000000000000e+00   0.000000000000e+00   0.000000000000e+00   0.000000000000e+00   0.000000000000e+00   0.000000000000e+00   0.000000000000e+00 
  0.000000000000e+00   0.000000000000e+00   0.000000000000e+00   0.000000000000e+00   0.000000000000e+00   0.000000000000e+00   0.000000000000e+00   0.000000000000e+00   0.000000000000e+00 
  0.000000000000e+00   0.000000000000e+00   0.000000000000e+00   0.000000000000e+00   0.000000000000e+00   0.000000000000e+00   0.000000000000e+00   0.000000000000e+00   0.000000000000e+00 
  0.000000000000e+00   0.000000000000e+00   0.000000000000e+00   0.000000000000e+00   0.000000000000e+00   0.000000000000e+00   0.000000000000e+00   0.000000000000e+00   0.000000000000e+00 
  0.000000000000e+00   0.000000000000e+00   5.849996566772e+00   5.849829673767e+00   5.849517822266e+00   5.849098682404e+00   5.848615646362e+00   5.848108768463e+00   5.847609996796e+00 
  5.847141742706e+00   5.846717834473e+00   5.846344470978e+00   5.846022605896e+00   5.845751285553e+00   5.845527648926e+00   5.845347404480e+00   5.845207214355e+00   5.845105171204e+00 
  5.845037937164e+00   5.845007896423e+00   0.000000000000e+00   0.000000000000e+00   5.756874561310e+00   5.756677150726e+00   5.756312370300e+00   5.755830287933e+00   5.755285263062e+00 
  5.754724502563e+00   5.754183292389e+00   5.753684043884e+00   5.753239154816e+00   5.752852439880e+00   5.752522945404e+00   5.752247333527e+00   5.752021312714e+00   5.751840591431e+00 
  5.751700878143e+00   5.751598834991e+00   5.751532077789e+00   5.751502037048e+00   0.000000000000e+00   0.000000000000e+00   5.568682670593e+00   5.568413734436e+00   5.567926883698e+00 
  5.567302227020e+00   5.566620349884e+00   5.565944194794e+00   5.565314769745e+00   5.564753055573e+00   5.564266204834e+00   5.563853740692e+00   5.563509941101e+00   5.563227176666e+00 
  5.562998294830e+00   5.562817096710e+00   5.562677860260e+00   5.562577247620e+00   5.562510967255e+00   5.562481880188e+00   0.000000000000e+00   0.000000000000e+00   5.280465602875e+00 
  5.280056476593e+00   5.279336929321e+00   5.278450965881e+00   5.277530193329e+00   5.276661396027e+00   5.275891304016e+00   5.275234222412e+00   5.274687767029e+00   5.274240016937e+00 
  5.273878097534e+00   5.273587226868e+00   5.273356437683e+00   5.273176193237e+00   5.273039340973e+00   5.272940635681e+00   5.272876739502e+00   5.272848129272e+00   0.000000000000e+00 
  0.000000000000e+00   4.884209156036e+00   4.883530616760e+00   4.882383346558e+00   4.881045818329e+00   4.879735469818e+00   4.878574371338e+00   4.877604484558e+00   4.876821994781e+00 
  4.876202106476e+00   4.875716686249e+00   4.875337600708e+00   4.875042438507e+00   4.874813556671e+00   4.874637603760e+00   4.874505996704e+00   4.874412059784e+00   4.874351024628e+00 
  4.874324321747e+00   0.000000000000e+00   0.000000000000e+00   4.367326736450e+00   4.366121768951e+00   4.364195823669e+00   4.362095355988e+00   4.360177993774e+00   4.358600139618e+00 
  4.357374191284e+00   4.356446266174e+00   4.355753421783e+00   4.355237007141e+00   4.354851245880e+00   4.354561328888e+00   4.354341983795e+00   4.354176998138e+00   4.354055404663e+00 
  4.353969097137e+00   4.353914260864e+00   4.353889942169e+00   0.000000000000e+00   0.000000000000e+00   3.709678411484e+00   3.707416296005e+00   3.704126834869e+00   3.700813293457e+00 
  3.698002815247e+00   3.695881843567e+00   3.694372177124e+00   3.693314313889e+00   3.692574501038e+00   3.692054748535e+00   3.691684722900e+00   3.691416978836e+00   3.691220521927e+00 
  3.691076040268e+00   3.690970897675e+00   3.690897703171e+00   3.690851211548e+00   3.690830707550e+00   0.000000000000e+00   0.000000000000e+00   2.867174863815e+00   2.862780570984e+00 
  2.857634067535e+00   2.852825641632e+00   2.848888874054e+00   2.846200466156e+00   2.844496250153e+00   2.843408346176e+00   2.842701196671e+00   2.842234611511e+00   2.841920137405e+00 
  2.841701745987e+00   2.841546297073e+00   2.841434478760e+00   2.841354608536e+00   2.841299533844e+00   2.841264963150e+00   2.841249704361e+00   0.000000000000e+00   0.000000000000e+00 
  1.740289807320e+00   1.731343030930e+00   1.728562951088e+00   1.724263787270e+00   1.718899130821e+00   1.715811610222e+00   1.714271903038e+00   1.713411331177e+00   1.712899208069e+00 
  1.712583661079e+00   1.712382674217e+00   1.712249159813e+00   1.712157011032e+00   1.712092280388e+00   1.712046861649e+00   1.712015986443e+00   1.711996555328e+00   1.711988329887e+00 
  0.000000000000e+00   0.000000000000e+00   0.000000000000e+00   0.000000000000e+00   0.000000000000e+00   0.000000000000e+00   0.000000000000e+00   0.000000000000e+00   0.000000000000e+00 
  0.000000000000e+00   0.000000000000e+00   0.000000000000e+00   0.000000000000e+00   0.000000000000e+00   0.000000000000e+00   0.000000000000e+00   0.000000000000e+00   0.000000000000e+00 
  0.000000000000e+00   0.000000000000e+00   0.000000000000e+00   0.000000000000e+00   0.000000000000e+00   0.000000000000e+00   0.000000000000e+00   0.000000000000e+00   0.000000000000e+00 
  0.000000000000e+00   0.000000000000e+00   0.000000000000e+00   0.000000000000e+00   0.000000000000e+00   0.000000000000e+00   0.000000000000e+00   0.000000000000e+00   0.000000000000e+00 
  0.000000000000e+00   0.000000000000e+00   0.000000000000e+00   0.000000000000e+00   0.000000000000e+00   0.000000000000e+00   0.000000000000e+00   0.000000000000e+00   0.000000000000e+00 
  0.000000000000e+00   0.000000000000e+00   0.000000000000e+00   0.000000000000e+00   0.000000000000e+00   0.000000000000e+00   0.000000000000e+00   0.000000000000e+00   0.000000000000e+00 
  0.000000000000e+00   0.000000000000e+00   0.000000000000e+00   0.000000000000e+00   0.000000000000e+00   0.000000000000e+00   0.000000000000e+00   0.000000000000e+00   0.000000000000e+00 
  0.000000000000e+00   0.000000000000e+00   0.000000000000e+00   0.000000000000e+00   0.000000000000e+00   0.000000000000e+00   0.000000000000e+00   0.000000000000e+00   0.000000000000e+00 
  0.000000000000e+00   0.000000000000e+00   0.000000000000e+00   0.000000000000e+00   0.000000000000e+00   0.000000000000e+00   0.000000000000e+00   0.000000000000e+00   0.000000000000e+00 
  0.000000000000e+00   0.000000000000e+00   0.000000000000e+00   0.000000000000e+00   0.000000000000e+00   0.000000000000e+00   0.000000000000e+00   0.000000000000e+00   0.000000000000e+00 
  0.000000000000e+00   0.000000000000e+00   0.000000000000e+00   0.000000000000e+00   0.000000000000e+00   0.000000000000e+00   0.000000000000e+00   0.000000000000e+00   0.000000000000e+00 
  0.000000000000e+00   0.000000000000e+00   0.000000000000e+00   0.000000000000e+00   0.000000000000e+00   0.000000000000e+00   0.000000000000e+00   0.000000000000e+00   0.000000000000e+00 
  0.000000000000e+00   0.000000000000e+00   0.000000000000e+00   0.000000000000e+00   0.000000000000e+00   0.000000000000e+00   0.000000000000e+00   0.000000000000e+00   0.000000000000e+00 
  0.000000000000e+00   0.000000000000e+00   0.000000000000e+00   0.000000000000e+00   0.000000000000e+00   0.000000000000e+00   0.000000000000e+00   0.000000000000e+00   0.000000000000e+00 
  0.000000000000e+00   0.000000000000e+00   0.000000000000e+00   0.000000000000e+00   0.000000000000e+00   0.000000000000e+00   0.000000000000e+00   0.000000000000e+00   0.000000000000e+00 
  0.000000000000e+00   0.000000000000e+00   0.000000000000e+00   0.000000000000e+00   0.000000000000e+00   0.000000000000e+00   0.000000000000e+00   0.000000000000e+00   0.000000000000e+00 
  0.000000000000e+00   0.000000000000e+00   0.000000000000e+00   0.000000000000e+00   0.000000000000e+00   0.000000000000e+00   0.000000000000e+00   0.000000000000e+00   0.000000000000e+00 
  0.000000000000e+00   0.000000000000e+00   0.000000000000e+00   0.000000000000e+00   0.000000000000e+00   0.000000000000e+00   0.000000000000e+00   0.000000000000e+00   0.000000000000e+00 
  0.000000000000e+00   0.000000000000e+00   0.000000000000e+00   0.000000000000e+00   0.000000000000e+00   0.000000000000e+00   0.000000000000e+00   0.000000000000e+00   0.000000000000e+00 
  0.000000000000e+00   0.000000000000e+00   0.000000000000e+00   0.000000000000e+00   0.000000000000e+00   0.000000000000e+00   0.000000000000e+00   0.000000000000e+00   0.000000000000e+00 
  0.000000000000e+00   0.000000000000e+00   0.000000000000e+00   0.000000000000e+00   0.000000000000e+00   0.000000000000e+00   0.000000000000e+00   0.000000000000e+00   0.000000000000e+00 
  0.000000000000e+00   0.000000000000e+00   0.000000000000e+00   0.000000000000e+00   0.000000000000e+00   0.000000000000e+00   0.000000000000e+00   0.000000000000e+00   0.000000000000e+00 
  0.000000000000e+00   0.000000000000e+00   0.000000000000e+00   0.000000000000e+00   0.000000000000e+00   0.000000000000e+00   0.000000000000e+00   0.000000000000e+00   0.000000000000e+00 
  0.000000000000e+00   0.000000000000e+00   0.000000000000e+00   0.000000000000e+00   0.000000000000e+00   0.000000000000e+00   0.000000000000e+00   0.000000000000e+00   0.000000000000e+00 
  0.000000000000e+00   0.000000000000e+00   0.000000000000e+00   0.000000000000e+00   0.000000000000e+00   0.000000000000e+00   5.028057098389e+00   5.027909278870e+00   5.027631759644e+00 
  5.027256965637e+00   5.026822090149e+00   5.026362419128e+00   5.025907039642e+00   5.025476932526e+00   5.025084018707e+00   5.024735927582e+00   5.024434089661e+00   5.024177551270e+00 
  5.023964881897e+00   5.023792743683e+00   5.023658752441e+00   5.023560523987e+00   5.023495674133e+00   5.023466587067e+00   0.000000000000e+00   0.000000000000e+00   4.939128875732e+00 
  4.938958168030e+00   4.938641071320e+00   4.938218116760e+00   4.937735080719e+00   4.937232971191e+00   4.936743736267e+00   4.936288356781e+00   4.935878276825e+00   4.935518741608e+00 
  4.935210227966e+00   4.934950351715e+00   4.934735774994e+00   4.934563159943e+00   4.934429168701e+00   4.934330940247e+00   4.934266567230e+00   4.934237480164e+00   0.000000000000e+00 
  0.000000000000e+00   4.759504318237e+00   4.759282112122e+00   4.758876800537e+00   4.758348941803e+00   4.757762908936e+00   4.757172107697e+00   4.756613254547e+00   4.756106853485e+00 
  4.755662441254e+00   4.755281925201e+00   4.754961013794e+00   4.754694938660e+00   4.754477500916e+00   4.754304409027e+00   4.754170417786e+00   4.754073143005e+00   4.754009246826e+00 
  4.753980636597e+00   0.000000000000e+00   0.000000000000e+00   4.484792709351e+00   4.484478473663e+00   4.483916759491e+00   4.483209133148e+00   4.482452392578e+00   4.481718540192e+00 
  4.481050968170e+00   4.480468750000e+00   4.479975700378e+00   4.479565620422e+00   4.479229450226e+00   4.478956222534e+00   4.478736877441e+00   4.478563785553e+00   4.478431701660e+00 
  4.478335857391e+00   4.478273391724e+00   4.478245735168e+00   0.000000000000e+00   0.000000000000e+00   4.107856750488e+00   4.107388496399e+00   4.106576919556e+00   4.105589389801e+00 
  4.104576110840e+00   4.103636264801e+00   4.102819442749e+00   4.102137565613e+00   4.101583957672e+00   4.101141452789e+00   4.100790500641e+00   4.100512981415e+00   4.100295066833e+00 
  4.100125312805e+00   4.099997520447e+00   4.099905490875e+00   4.099845886230e+00   4.099819660187e+00   0.000000000000e+00   0.000000000000e+00   3.617562294006e+00   3.616856336594e+00 
  3.615685462952e+00   3.614303827286e+00   3.612933158875e+00   3.611717462540e+00   3.610711097717e+00   3.609910964966e+00   3.609292745590e+00   3.608822345734e+00   3.608464717865e+00 
  3.608191013336e+00   3.607980966568e+00   3.607820510864e+00   3.607701063156e+00   3.607616186142e+00   3.607561588287e+00   3.607537269592e+00   0.000000000000e+00   0.000000000000e+00 