# vtk DataFile Version 2.0
Written using VisIt writer
ASCII
DATASET RECTILINEAR_GRID
DIMENSIONS 20 20 20
X_COORDINATES 20 float
  0.000000000000e+00   1.000000000000e+00   2.000000000000e+00   3.000000000000e+00   4.000000000000e+00   5.000000000000e+00   6.000000000000e+00   7.000000000000e+00   8.000000000000e+00 
  9.000000000000e+00   1.000000000000e+01   1.100000000000e+01   1.200000000000e+01   1.300000000000e+01   1.400000000000e+01   1.500000000000e+01   1.600000000000e+01   1.700000000000e+01 
  1.800000000000e+01   1.900000000000e+01 
Y_COORDINATES 20 float
  0.000000000000e+00   1.000000000000e+00   2.000000000000e+00   3.000000000000e+00   4.000000000000e+00   5.000000000000e+00   6.000000000000e+00   7.000000000000e+00   8.000000000000e+00 
  9.000000000000e+00   1.000000000000e+01   1.100000000000e+01   1.200000000000e+01   1.300000000000e+01   1.400000000000e+01   1.500000000000e+01   1.600000000000e+01   1.700000000000e+01 
  1.800000000000e+01   1.900000000000e+01 
Z_COORDINATES 20 float
  0.000000000000e+00   1.000000000000e+00   2.000000000000e+00   3.000000000000e+00   4.000000000000e+00   5.000000000000e+00   6.000000000000e+00   7.000000000000e+00   8.000000000000e+00 
  9.000000000000e+00   1.000000000000e+01   1.100000000000e+01   1.200000000000e+01   1.300000000000e+01   1.400000000000e+01   1.500000000000e+01   1.600000000000e+01   1.700000000000e+01 
  1.800000000000e+01   1.900000000000e+01 
CELL_DATA 6859
POINT_DATA 8000
SCALARS pressure float
LOOKUP_TABLE default
  0.000000000000e+00   0.000000000000e+00   0.000000000000e+00   0.000000000000e+00   0.000000000000e+00   0.000000000000e+00   0.000000000000e+00   0.000000000000e+00   0.000000000000e+00 
  0.000000000000e+00   0.000000000000e+00   0.000000000000e+00   0.000000000000e+00   0.000000000000e+00   0.000000000000e+00   0.000000000000e+00   0.000000000000e+00   0.000000000000e+00 
  0.000000000000e+00   0.000000000000e+00   0.000000000000e+00   0.000000000000e+00   0.000000000000e+00   0.000000000000e+00   0.000000000000e+00   0.000000000000e+00   0.000000000000e+00 
  0.000000000000e+00   0.000000000000e+00   0.000000000000e+00   0.000000000000e+00   0.000000000000e+00   0.000000000000e+00   0.000000000000e+00   0.000000000000e+00   0.000000000000e+00 
  0.000000000000e+00   0.000000000000e+00   0.000000000000e+00   0.000000000000e+00   0.000000000000e+00   0.000000000000e+00   0.000000000000e+00   0.000000000000e+00   0.000000000000e+00 
  0.000000000000e+00   0.000000000000e+00   0.000000000000e+00   0.000000000000e+00   0.000000000000e+00   0.000000000000e+00   0.000000000000e+00   0.000000000000e+00   0.000000000000e+00 
  0.000000000000e+00   0.000000000000e+00   0.000000000000e+00   0.000000000000e+00   0.000000000000e+00   0.000000000000e+00   0.000000000000e+00   0.000000000000e+00   0.000000000000e+00 
  0.000000000000e+00   0.000000000000e+00   0.000000000000e+00   0.000000000000e+00   0.000000000000e+00   0.000000000000e+00   0.000000000000e+00   0.000000000000e+00   0.000000000000e+00 
  0.000000000000e+00   0.000000000000e+00   0.000000000000e+00   0.000000000000e+00   0.000000000000e+00   0.000000000000e+00   0.000000000000e+00   0.000000000000e+00   0.000000000000e+00 
  0.000000000000e+00   0.000000000000e+00   0.000000000000e+00   0.000000000000e+00   0.000000000000e+00   0.000000000000e+00   0.000000000000e+00   0.000000000000e+00   0.000000000000e+00 
  0.000000000000e+00   0.000000000000e+00   0.000000000000e+00   0.000000000000e+00   0.000000000000e+00   0.000000000000e+00   0.000000000000e+00   0.000000000000e+00   0.000000000000e+00 
  0.000000000000e+00   0.000000000000e+00   0.000000000000e+00   0.000000000000e+00   0.000000000000e+00   0.000000000000e+00   0.000000000000e+00   0.000000000000e+00   0.000000000000e+00 
  0.000000000000e+00   0.000000000000e+00   0.000000000000e+00   0.000000000000e+00   0.000000000000e+00   0.000000000000e+00   0.000000000000e+00   0.000000000000e+00   0.000000000000e+00 
  0.000000000000e+00   0.000000000000e+00   0.000000000000e+00   0.000000000000e+00   0.000000000000e+00   0.000000000000e+00   0.000000000000e+00   0.000000000000e+00   0.000000000000e+00 
  0.000000000000e+00   0.000000000000e+00   0.000000000000e+00   0.000000000000e+00   0.000000000000e+00   0.000000000000e+00   0.000000000000e+00   0.000000000000e+00   0.000000000000e+00 
  0.000000000000e+00   0.000000000000e+00   0.000000000000e+00   0.000000000000e+00   0.000000000000e+00   0.000000000000e+00   0.000000000000e+00   0.000000000000e+00   0.000000000000e+00 
  0.000000000000e+00   0.000000000000e+00   0.000000000000e+00   0.000000000000e+00   0.000000000000e+00   0.000000000000e+00   0.000000000000e+00   0.000000000000e+00   0.000000000000e+00 
  0.000000000000e+00   0.000000000000e+00   0.000000000000e+00   0.000000000000e+00   0.000000000000e+00   0.000000000000e+00   0.000000000000e+00   0.000000000000e+00   0.000000000000e+00 
  0.000000000000e+00   0.000000000000e+00   0.000000000000e+00   0.000000000000e+00   0.000000000000e+00   0.000000000000e+00   0.000000000000e+00   0.000000000000e+00   0.000000000000e+00 
  0.000000000000e+00   0.000000000000e+00   0.000000000000e+00   0.000000000000e+00   0.000000000000e+00   0.000000000000e+00   0.000000000000e+00   0.000000000000e+00   0.000000000000e+00 
  0.000000000000e+00   0.000000000000e+00   0.000000000000e+00   0.000000000000e+00   0.000000000000e+00   0.000000000000e+00   0.000000000000e+00   0.000000000000e+00   0.000000000000e+00 
  0.000000000000e+00   0.000000000000e+00   0.000000000000e+00   0.000000000000e+00   0.000000000000e+00   0.000000000000e+00   0.000000000000e+00   0.000000000000e+00   0.000000000000e+00 
  0.000000000000e+00   0.000000000000e+00   0.000000000000e+00   0.000000000000e+00   0.000000000000e+00   0.000000000000e+00   0.000000000000e+00   0.000000000000e+00   0.000000000000e+00 
  0.000000000000e+00   0.000000000000e+00   0.000000000000e+00   0.000000000000e+00   0.000000000000e+00   0.000000000000e+00   0.000000000000e+00   0.000000000000e+00   0.000000000000e+00 
  0.000000000000e+00   0.000000000000e+00   0.000000000000e+00   0.000000000000e+00   0.000000000000e+00   0.000000000000e+00   0.000000000000e+00   0.000000000000e+00   0.000000000000e+00 
  0.000000000000e+00   0.000000000000e+00   0.000000000000e+00   0.000000000000e+00   0.000000000000e+00   0.000000000000e+00   0.000000000000e+00   0.000000000000e+00   0.000000000000e+00 
  0.000000000000e+00   0.000000000000e+00   0.000000000000e+00   0.000000000000e+00   0.000000000000e+00   0.000000000000e+00   0.000000000000e+00   0.000000000000e+00   0.000000000000e+00 
  0.000000000000e+00   0.000000000000e+00   0.000000000000e+00   0.000000000000e+00   0.000000000000e+00   0.000000000000e+00   0.000000000000e+00   0.000000000000e+00   0.000000000000e+00 
  0.000000000000e+00   0.000000000000e+00   0.000000000000e+00   0.000000000000e+00   0.000000000000e+00   0.000000000000e+00   0.000000000000e+00   0.000000000000e+00   0.000000000000e+00 
  0.000000000000e+00   0.000000000000e+00   0.000000000000e+00   0.000000000000e+00   0.000000000000e+00   0.000000000000e+00   0.000000000000e+00   0.000000000000e+00   0.000000000000e+00 
  0.000000000000e+00   0.000000000000e+00   0.000000000000e+00   0.000000000000e+00   0.000000000000e+00   0.000000000000e+00   0.000000000000e+00   0.000000000000e+00   0.000000000000e+00 
  0.000000000000e+00   0.000000000000e+00   0.000000000000e+00   0.000000000000e+00   0.000000000000e+00   0.000000000000e+00   0.000000000000e+00   0.000000000000e+00   0.000000000000e+00 
  0.000000000000e+00   0.000000000000e+00   0.000000000000e+00   0.000000000000e+00   0.000000000000e+00   0.000000000000e+00   0.000000000000e+00   0.000000000000e+00   0.000000000000e+00 
  0.000000000000e+00   0.000000000000e+00   0.000000000000e+00   0.000000000000e+00   0.000000000000e+00   0.000000000000e+00   0.000000000000e+00   0.000000000000e+00   0.000000000000e+00 
  0.000000000000e+00   0.000000000000e+00   0.000000000000e+00   0.000000000000e+00   0.000000000000e+00   0.000000000000e+00   0.000000000000e+00   0.000000000000e+00   0.000000000000e+00 
  0.000000000000e+00   0.000000000000e+00   0.000000000000e+00   0.000000000000e+00   0.000000000000e+00   0.000000000000e+00   0.000000000000e+00   0.000000000000e+00   0.000000000000e+00 
  0.000000000000e+00   0.000000000000e+00   0.000000000000e+00   0.000000000000e+00   0.000000000000e+00   0.000000000000e+00   0.000000000000e+00   0.000000000000e+00   0.000000000000e+00 
  0.000000000000e+00   0.000000000000e+00   0.000000000000e+00   0.000000000000e+00   0.000000000000e+00   0.000000000000e+00   0.000000000000e+00   0.000000000000e+00   0.000000000000e+00 
  0.000000000000e+00   0.000000000000e+00   0.000000000000e+00   0.000000000000e+00   0.000000000000e+00   0.000000000000e+00   0.000000000000e+00   0.000000000000e+00   0.000000000000e+00 
  0.000000000000e+00   0.000000000000e+00   0.000000000000e+00   0.000000000000e+00   0.000000000000e+00   0.000000000000e+00   0.000000000000e+00   0.000000000000e+00   0.000000000000e+00 
  0.000000000000e+00   0.000000000000e+00   0.000000000000e+00   0.000000000000e+00   0.000000000000e+00   0.000000000000e+00   0.000000000000e+00   0.000000000000e+00   0.000000000000e+00 
  0.000000000000e+00   0.000000000000e+00   0.000000000000e+00   0.000000000000e+00   0.000000000000e+00   0.000000000000e+00   0.000000000000e+00   0.000000000000e+00   0.000000000000e+00 
  0.000000000000e+00   0.000000000000e+00   0.000000000000e+00   0.000000000000e+00   0.000000000000e+00   0.000000000000e+00   0.000000000000e+00   0.000000000000e+00   0.000000000000e+00 
  0.000000000000e+00   0.000000000000e+00   0.000000000000e+00   0.000000000000e+00   0.000000000000e+00   0.000000000000e+00   0.000000000000e+00   0.000000000000e+00   0.000000000000e+00 
  0.000000000000e+00   0.000000000000e+00   0.000000000000e+00   0.000000000000e+00   0.000000000000e+00   0.000000000000e+00   0.000000000000e+00   0.000000000000e+00   0.000000000000e+00 
  0.000000000000e+00   0.000000000000e+00   0.000000000000e+00   0.000000000000e+00   0.000000000000e+00   0.000000000000e+00   0.000000000000e+00   0.000000000000e+00   0.000000000000e+00 
  0.000000000000e+00   0.000000000000e+00   0.000000000000e+00   0.000000000000e+00   0.000000000000e+00   0.000000000000e+00   0.000000000000e+00   6.414230823517e+00   6.414230823517e+00 
  6.414230823517e+00   6.414230346680e+00   6.414230346680e+00   6.414230346680e+00   6.414229869843e+00   6.414229869843e+00   6.414229393005e+00   6.414229393005e+00   6.414229393005e+00 
  6.414228916168e+00   6.414228916168e+00   6.414228916168e+00   6.414228916168e+00   6.414228439331e+00   6.414228439331e+00   6.414228439331e+00   0.000000000000e+00   0.000000000000e+00 
  6.314276695251e+00   6.314276695251e+00   6.314276695251e+00   6.314276695251e+00   6.314276218414e+00   6.314276218414e+00   6.314275741577e+00   6.314275741577e+00   6.314275264740e+00 
  6.314275264740e+00   6.314275264740e+00   6.314274787903e+00   6.314274787903e+00   6.314274787903e+00   6.314274787903e+00   6.314274787903e+00   6.314274787903e+00   6.314274787903e+00 
  0.000000000000e+00   0.000000000000e+00   6.111440181732e+00   6.111440181732e+00   6.111440181732e+00   6.111440181732e+00   6.111439704895e+00   6.111439704895e+00   6.111439704895e+00 
  6.111439228058e+00   6.111439228058e+00   6.111438751221e+00   6.111438751221e+00   6.111438751221e+00   6.111438751221e+00   6.111438274384e+00   6.111438274384e+00   6.111438274384e+00 
  6.111438274384e+00   6.111438274384e+00   0.000000000000e+00   0.000000000000e+00   5.799309253693e+00   5.799309253693e+00   5.799309253693e+00   5.799308776855e+00   5.799308776855e+00 
  5.799308776855e+00   5.799308300018e+00   5.799308300018e+00   5.799307823181e+00   5.799307823181e+00   5.799307823181e+00   5.799307823181e+00   5.799307346344e+00   5.799307346344e+00 
  5.799307346344e+00   5.799307346344e+00   5.799307346344e+00   5.799307346344e+00   0.000000000000e+00   0.000000000000e+00   5.367109298706e+00   5.367109298706e+00   5.367108821869e+00 
  5.367108821869e+00   5.367108821869e+00   5.367108345032e+00   5.367108345032e+00   5.367108345032e+00   5.367107868195e+00   5.367107868195e+00   5.367107868195e+00   5.367107391357e+00 
  5.367107391357e+00   5.367107391357e+00   5.367107391357e+00   5.367107391357e+00   5.367107391357e+00   5.367107391357e+00   0.000000000000e+00   0.000000000000e+00   4.797780036926e+00 
  4.797780036926e+00   4.797779560089e+00   4.797779560089e+00   4.797779560089e+00   4.797779560089e+00   4.797779083252e+00   4.797779083252e+00   4.797779083252e+00   4.797778606415e+00 
  4.797778606415e+00   4.797778606415e+00   4.797778606415e+00   4.797778606415e+00   4.797778129578e+00   4.797778129578e+00   4.797778129578e+00   4.797778129578e+00   0.000000000000e+00 
  0.000000000000e+00   4.064053058624e+00   4.064053058624e+00   4.064053058624e+00   4.064052581787e+00   4.064052581787e+00   4.064052581787e+00   4.064052581787e+00   4.064052104950e+00 
  4.064052104950e+00   4.064052104950e+00   4.064052104950e+00   4.064051628113e+00   4.064051628113e+00   4.064051628113e+00   4.064051628113e+00   4.064051628113e+00   4.064051628113e+00 
  4.064051628113e+00   0.000000000000e+00   0.000000000000e+00   3.119750499725e+00   3.119750499725e+00   3.119750261307e+00   3.119750261307e+00   3.119750261307e+00   3.119750022888e+00 
  3.119750022888e+00   3.119750022888e+00   3.119749784470e+00   3.119749784470e+00   3.119749784470e+00   3.119749546051e+00   3.119749546051e+00   3.119749546051e+00   3.119749546051e+00 
  3.119749546051e+00   3.119749546051e+00   3.119749546051e+00   0.000000000000e+00   0.000000000000e+00   1.877919077873e+00   1.877919077873e+00   1.877919077873e+00   1.877919077873e+00 
  1.877918958664e+00   1.877918958664e+00   1.877918839455e+00   1.877918839455e+00   1.877918839455e+00   1.877918720245e+00   1.877918720245e+00   1.877918720245e+00   1.877918720245e+00 
  1.877918601036e+00   1.877918601036e+00   1.877918601036e+00   1.877918601036e+00   1.877918601036e+00   0.000000000000e+00   0.000000000000e+00   0.000000000000e+00   0.000000000000e+00 
  0.000000000000e+00   0.000000000000e+00   0.000000000000e+00   0.000000000000e+00   0.000000000000e+00   0.000000000000e+00   0.000000000000e+00   0.000000000000e+00   0.000000000000e+00 
  0.000000000000e+00   0.000000000000e+00   0.000000000000e+00   0.000000000000e+00   0.000000000000e+00   0.000000000000e+00   0.000000000000e+00   0.000000000000e+00   0.000000000000e+00 
  0.000000000000e+00   0.000000000000e+00   0.000000000000e+00   0.000000000000e+00   0.000000000000e+00   0.000000000000e+00   0.000000000000e+00   0.000000000000e+00   0.000000000000e+00 
  0.000000000000e+00   0.000000000000e+00   0.000000000000e+00   0.000000000000e+00   0.000000000000e+00   0.000000000000e+00   0.000000000000e+00   0.000000000000e+00   0.000000000000e+00 
  0.000000000000e+00   0.000000000000e+00   0.000000000000e+00   0.000000000000e+00   0.000000000000e+00   0.000000000000e+00   0.000000000000e+00   0.000000000000e+00   0.000000000000e+00 
  0.000000000000e+00   0.000000000000e+00   0.000000000000e+00   0.000000000000e+00   0.000000000000e+00   0.000000000000e+00   0.000000000000e+00   0.000000000000e+00   0.000000000000e+00 
  0.000000000000e+00   0.000000000000e+00   0.000000000000e+00   0.000000000000e+00   0.000000000000e+00   0.000000000000e+00   0.000000000000e+00   0.000000000000e+00   0.000000000000e+00 
  0.000000000000e+00   0.000000000000e+00   0.000000000000e+00   0.000000000000e+00   0.000000000000e+00   0.000000000000e+00   0.000000000000e+00   0.000000000000e+00   0.000000000000e+00 
  0.000000000000e+00   0.000000000000e+00   0.000000000000e+00   0.000000000000e+00   0.000000000000e+00   0.000000000000e+00   0.000000000000e+00   0.000000000000e+00   0.000000000000e+00 
  0.000000000000e+00   0.000000000000e+00   0.000000000000e+00   0.000000000000e+00   0.000000000000e+00   0.000000000000e+00   0.000000000000e+00   0.000000000000e+00   0.000000000000e+00 
  0.000000000000e+00   0.000000000000e+00   0.000000000000e+00   0.000000000000e+00   0.000000000000e+00   0.000000000000e+00   0.000000000000e+00   0.000000000000e+00   0.000000000000e+00 
  0.000000000000e+00   0.000000000000e+00   0.000000000000e+00   0.000000000000e+00   0.000000000000e+00   0.000000000000e+00   0.000000000000e+00   0.000000000000e+00   0.000000000000e+00 
  0.000000000000e+00   0.000000000000e+00   0.000000000000e+00   0.000000000000e+00   0.000000000000e+00   0.000000000000e+00   0.000000000000e+00   0.000000000000e+00   0.000000000000e+00 
  0.000000000000e+00   0.000000000000e+00   0.000000000000e+00   0.000000000000e+00   0.000000000000e+00   0.000000000000e+00   0.000000000000e+00   0.000000000000e+00   0.000000000000e+00 
  0.000000000000e+00   0.000000000000e+00   0.000000000000e+00   0.000000000000e+00   0.000000000000e+00   0.000000000000e+00   0.000000000000e+00   0.000000000000e+00   0.000000000000e+00 
  0.000000000000e+00   0.000000000000e+00   0.000000000000e+00   0.000000000000e+00   0.000000000000e+00   0.000000000000e+00   0.000000000000e+00   0.000000000000e+00   0.000000000000e+00 
  0.000000000000e+00   0.000000000000e+00   0.000000000000e+00   0.000000000000e+00   0.000000000000e+00   0.000000000000e+00   0.000000000000e+00   0.000000000000e+00   0.000000000000e+00 
  0.000000000000e+00   0.000000000000e+00   0.000000000000e+00   0.000000000000e+00   0.000000000000e+00   0.000000000000e+00   0.000000000000e+00   0.000000000000e+00   0.000000000000e+00 
  0.000000000000e+00   0.000000000000e+00   0.000000000000e+00   0.000000000000e+00   0.000000000000e+00   0.000000000000e+00   0.000000000000e+00   0.000000000000e+00   0.000000000000e+00 
  0.000000000000e+00   0.000000000000e+00   0.000000000000e+00   0.000000000000e+00   0.000000000000e+00   0.000000000000e+00   0.000000000000e+00   0.000000000000e+00   0.000000000000e+00 
  0.000000000000e+00   0.000000000000e+00   0.000000000000e+00   0.000000000000e+00   0.000000000000e+00   0.000000000000e+00   0.000000000000e+00   0.000000000000e+00   0.000000000000e+00 
  0.000000000000e+00   0.000000000000e+00   0.000000000000e+00   0.000000000000e+00   0.000000000000e+00   0.000000000000e+00   0.000000000000e+00   0.000000000000e+00   0.000000000000e+00 
  0.000000000000e+00   0.000000000000e+00   0.000000000000e+00   0.000000000000e+00   0.000000000000e+00   0.000000000000e+00   0.000000000000e+00   0.000000000000e+00   0.000000000000e+00 
  0.000000000000e+00   0.000000000000e+00   0.000000000000e+00   0.000000000000e+00   0.000000000000e+00   0.000000000000e+00   0.000000000000e+00   0.000000000000e+00   0.000000000000e+00 
  0.000000000000e+00   0.000000000000e+00   5.513816356659e+00   5.513816356659e+00   5.513816356659e+00   5.513815879822e+00   5.513815879822e+00   5.513815879822e+00   5.513815402985e+00 
  5.513815402985e+00   5.513814926147e+00   5.513814926147e+00   5.513814449310e+00   5.513814449310e+00   5.513814449310e+00   5.513814449310e+00   5.513813972473e+00   5.513813972473e+00 
  5.513813972473e+00   5.513813972473e+00   0.000000000000e+00   0.000000000000e+00   5.416846275330e+00   5.416845798492e+00   5.416845798492e+00   5.416845798492e+00   5.416845321655e+00 
  5.416845321655e+00   5.416845321655e+00   5.416844844818e+00   5.416844844818e+00   5.416844367981e+00   5.416844367981e+00   5.416844367981e+00   5.416843891144e+00   5.416843891144e+00 
  5.416843891144e+00   5.416843891144e+00   5.416843891144e+00   5.416843891144e+00   0.000000000000e+00   0.000000000000e+00   5.220363616943e+00   5.220363616943e+00   5.220363616943e+00 
  5.220363616943e+00   5.220363140106e+00   5.220363140106e+00   5.220362663269e+00   5.220362663269e+00   5.220362186432e+00   5.220362186432e+00   5.220362186432e+00   5.220361709595e+00 
  5.220361709595e+00   5.220361709595e+00   5.220361709595e+00   5.220361709595e+00   5.220361709595e+00   5.220361709595e+00   0.000000000000e+00   0.000000000000e+00   4.918893814087e+00 
  4.918893814087e+00   4.918893814087e+00   4.918893814087e+00   4.918893337250e+00   4.918893337250e+00   4.918892860413e+00   4.918892860413e+00   4.918892383575e+00   4.918892383575e+00 
  4.918892383575e+00   4.918891906738e+00   4.918891906738e+00   4.918891906738e+00   4.918891906738e+00   4.918891906738e+00   4.918891906738e+00   4.918891906738e+00   0.000000000000e+00 
  0.000000000000e+00   4.503532886505e+00   4.503532886505e+00   4.503532886505e+00   4.503532409668e+00   4.503532409668e+00   4.503531932831e+00   4.503531932831e+00   4.503531932831e+00 
  4.503531455994e+00   4.503531455994e+00   4.503531455994e+00   4.503530979156e+00   4.503530979156e+00   4.503530979156e+00   4.503530979156e+00   4.503530979156e+00   4.503530979156e+00 
  4.503530979156e+00   0.000000000000e+00   0.000000000000e+00   3.961003065109e+00   3.961003065109e+00   3.961002826691e+00   3.961002826691e+00   3.961002588272e+00   3.961002349854e+00 
  3.961002111435e+00   3.961002111435e+00   3.961001873016e+00   3.961001634598e+00   3.961001634598e+00   3.961001634598e+00   3.961001396179e+00   3.961001396179e+00   3.961001396179e+00 
  3.961001157761e+00   3.961001157761e+00   3.961001157761e+00   0.000000000000e+00   0.000000000000e+00   3.272320747375e+00   3.272320747375e+00   3.272320747375e+00   3.272320508957e+00 
  3.272320270538e+00   3.272320270538e+00   3.272320032120e+00   3.272320032120e+00   3.272319793701e+00   3.272319793701e+00   3.272319555283e+00   3.272319555283e+00   3.272319555283e+00 
  3.272319316864e+00   3.272319316864e+00   3.272319316864e+00   3.272319316864e+00   3.272319316864e+00   0.000000000000e+00   0.000000000000e+00   2.411725282669e+00   2.411725282669e+00 
  2.411725282669e+00   2.411725044250e+00   2.411725044250e+00   2.411725044250e+00   2.411724805832e+00   2.411724805832e+00   2.411724567413e+00   2.411724567413e+00   2.411724567413e+00 
  2.411724328995e+00   2.411724328995e+00   2.411724328995e+00   2.411724328995e+00   2.411724328995e+00   2.411724328995e+00   2.411724328995e+00   0.000000000000e+00   0.000000000000e+00 
  1.350010395050e+00   1.350010395050e+00   1.350010395050e+00   1.350010275841e+00   1.350010275841e+00   1.350010156631e+00   1.350010156631e+00   1.350010037422e+00   1.350010037422e+00 
  1.350010037422e+00   1.350009918213e+00   1.350009918213e+00   1.350009918213e+00   1.350009918213e+00   1.350009918213e+00   1.350009918213e+00   1.350009799004e+00   1.350009799004e+00 
  0.000000000000e+00   0.000000000000e+00   0.000000000000e+00   0.000000000000e+00   0.000000000000e+00   0.000000000000e+00   0.000000000000e+00   0.000000000000e+00   0.000000000000e+00 
  0.000000000000e+00   0.000000000000e+00   0.000000000000e+00   0.000000000000e+00   0.000000000000e+00   0.000000000000e+00   0.000000000000e+00   0.000000000000e+00   0.000000000000e+00 
  0.000000000000e+00   0.000000000000e+00   0.000000000000e+00   0.000000000000e+00   0.000000000000e+00   0.000000000000e+00   0.000000000000e+00   0.000000000000e+00   0.000000000000e+00 
  0.000000000000e+00   0.000000000000e+00   0.000000000000e+00   0.000000000000e+00   0.000000000000e+00   0.000000000000e+00   0.000000000000e+00   0.000000000000e+00   0.000000000000e+00 
  0.000000000000e+00   0.000000000000e+00   0.000000000000e+00   0.000000000000e+00   0.000000000000e+00   0.000000000000e+00   0.000000000000e+00   0.000000000000e+00   0.000000000000e+00 
  0.000000000000e+00   0.000000000000e+00   0.000000000000e+00   0.000000000000e+00   0.000000000000e+00   0.000000000000e+00   0.000000000000e+00   0.000000000000e+00   0.000000000000e+00 
  0.000000000000e+00   0.000000000000e+00   0.000000000000e+00   0.000000000000e+00   0.000000000000e+00   0.000000000000e+00   0.000000000000e+00   0.000000000000e+00   0.000000000000e+00 
  0.000000000000e+00   0.000000000000e+00   0.000000000000e+00   0.000000000000e+00   0.000000000000e+00   0.000000000000e+00   0.000000000000e+00   0.000000000000e+00   0.000000000000e+00 
  0.000000000000e+00   0.000000000000e+00   0.000000000000e+00   0.000000000000e+00   0.000000000000e+00   0.000000000000e+00   0.000000000000e+00   0.000000000000e+00   0.000000000000e+00 
  0.000000000000e+00   0.000000000000e+00   0.000000000000e+00   0.000000000000e+00   0.000000000000e+00   0.000000000000e+00   0.000000000000e+00   0.000000000000e+00   0.000000000000e+00 
  0.000000000000e+00   0.000000000000e+00   0.000000000000e+00   0.000000000000e+00   0.000000000000e+00   0.000000000000e+00   0.000000000000e+00   0.000000000000e+00   0.000000000000e+00 
  0.000000000000e+00   0.000000000000e+00   0.000000000000e+00   0.000000000000e+00   0.000000000000e+00   0.000000000000e+00   0.000000000000e+00   0.000000000000e+00   0.000000000000e+00 
  0.000000000000e+00   0.000000000000e+00   0.000000000000e+00   0.000000000000e+00   0.000000000000e+00   0.000000000000e+00   0.000000000000e+00   0.000000000000e+00   0.000000000000e+00 
  0.000000000000e+00   0.000000000000e+00   0.000000000000e+00   0.000000000000e+00   0.000000000000e+00   0.000000000000e+00   0.000000000000e+00   0.000000000000e+00   0.000000000000e+00 
  0.000000000000e+00   0.000000000000e+00   0.000000000000e+00   0.000000000000e+00   0.000000000000e+00   0.000000000000e+00   0.000000000000e+00   0.000000000000e+00   0.000000000000e+00 
  0.000000000000e+00   0.000000000000e+00   0.000000000000e+00   0.000000000000e+00   0.000000000000e+00   0.000000000000e+00   0.000000000000e+00   0.000000000000e+00   0.000000000000e+00 
  0.000000000000e+00   0.000000000000e+00   0.000000000000e+00   0.000000000000e+00   0.000000000000e+00   0.000000000000e+00   0.000000000000e+00   0.000000000000e+00   0.000000000000e+00 
  0.000000000000e+00   0.000000000000e+00   0.000000000000e+00   0.000000000000e+00   0.000000000000e+00   0.000000000000e+00   0.000000000000e+00   0.000000000000e+00   0.000000000000e+00 
  0.000000000000e+00   0.000000000000e+00   0.000000000000e+00   0.000000000000e+00   0.000000000000e+00   0.000000000000e+00   0.000000000000e+00   0.000000000000e+00   0.000000000000e+00 
  0.000000000000e+00   0.000000000000e+00   0.000000000000e+00   0.000000000000e+00   0.000000000000e+00   0.000000000000e+00   0.000000000000e+00   0.000000000000e+00   0.000000000000e+00 
  0.000000000000e+00   0.000000000000e+00   0.000000000000e+00   0.000000000000e+00   0.000000000000e+00   0.000000000000e+00   0.000000000000e+00   0.000000000000e+00   0.000000000000e+00 
  0.000000000000e+00   0.000000000000e+00   0.000000000000e+00   0.000000000000e+00   0.000000000000e+00   0.000000000000e+00   0.000000000000e+00   0.000000000000e+00   0.000000000000e+00 
  0.000000000000e+00   0.000000000000e+00   0.000000000000e+00   0.000000000000e+00   0.000000000000e+00   0.000000000000e+00   0.000000000000e+00   0.000000000000e+00   0.000000000000e+00 
  0.000000000000e+00   0.000000000000e+00   0.000000000000e+00   0.000000000000e+00   0.000000000000e+00   0.000000000000e+00   0.000000000000e+00   0.000000000000e+00   0.000000000000e+00 
  0.000000000000e+00   0.000000000000e+00   0.000000000000e+00   0.000000000000e+00   0.000000000000e+00   0.000000000000e+00   4.710111141205e+00   4.710111141205e+00   4.710111141205e+00 
  4.710110664368e+00   4.710110664368e+00   4.710110664368e+00   4.710110187531e+00   4.710109710693e+00   4.710109710693e+00   4.710109710693e+00   4.710109233856e+00   4.710109233856e+00 
  4.710109233856e+00   4.710108757019e+00   4.710108757019e+00   4.710108757019e+00   4.710108757019e+00   4.710108757019e+00   0.000000000000e+00   0.000000000000e+00   4.618724822998e+00 
  4.618724822998e+00   4.618724346161e+00   4.618724346161e+00   4.618723869324e+00   4.618723869324e+00   4.618723392487e+00   4.618723392487e+00   4.618722915649e+00   4.618722915649e+00 
  4.618722915649e+00   4.618722438812e+00   4.618722438812e+00   4.618722438812e+00   4.618722438812e+00   4.618721961975e+00   4.618721961975e+00   4.618721961975e+00   0.000000000000e+00 
  0.000000000000e+00   4.434046268463e+00   4.434046268463e+00   4.434046268463e+00   4.434046268463e+00   4.434045791626e+00   4.434045791626e+00   4.434045314789e+00   4.434045314789e+00 
  4.434044837952e+00   4.434044837952e+00   4.434044361115e+00   4.434044361115e+00   4.434044361115e+00   4.434044361115e+00   4.434043884277e+00   4.434043884277e+00   4.434043884277e+00 
  4.434043884277e+00   0.000000000000e+00   0.000000000000e+00   4.152095317841e+00   4.152095317841e+00   4.152095317841e+00   4.152094841003e+00   4.152094841003e+00   4.152094364166e+00 
  4.152094364166e+00   4.152093887329e+00   4.152093887329e+00   4.152093410492e+00   4.152093410492e+00   4.152093410492e+00   4.152092933655e+00   4.152092933655e+00   4.152092933655e+00 
  4.152092933655e+00   4.152092933655e+00   4.152092933655e+00   0.000000000000e+00   0.000000000000e+00   3.766770839691e+00   3.766770839691e+00   3.766770601273e+00   3.766770362854e+00 
  3.766770124435e+00   3.766769886017e+00   3.766769647598e+00   3.766769647598e+00   3.766769409180e+00   3.766769170761e+00   3.766768932343e+00   3.766768932343e+00   3.766768693924e+00 
  3.766768693924e+00   3.766768693924e+00   3.766768693924e+00   3.766768455505e+00   3.766768455505e+00   0.000000000000e+00   0.000000000000e+00   3.269880533218e+00   3.269880294800e+00 
  3.269880294800e+00   3.269880056381e+00   3.269879817963e+00   3.269879579544e+00   3.269879341125e+00   3.269879102707e+00   3.269879102707e+00   3.269878864288e+00   3.269878625870e+00 
  3.269878625870e+00   3.269878625870e+00   3.269878387451e+00   3.269878387451e+00   3.269878387451e+00   3.269878387451e+00   3.269878387451e+00   0.000000000000e+00   0.000000000000e+00 