# vtk DataFile Version 2.0
Written using VisIt writer
ASCII
DATASET RECTILINEAR_GRID
DIMENSIONS 20 20 20
X_COORDINATES 20 float
  0.000000000000e+00   1.000000000000e+00   2.000000000000e+00   3.000000000000e+00   4.000000000000e+00   5.000000000000e+00   6.000000000000e+00   7.000000000000e+00   8.000000000000e+00 
  9.000000000000e+00   1.000000000000e+01   1.100000000000e+01   1.200000000000e+01   1.300000000000e+01   1.400000000000e+01   1.500000000000e+01   1.600000000000e+01   1.700000000000e+01 
  1.800000000000e+01   1.900000000000e+01 
Y_COORDINATES 20 float
  0.000000000000e+00   1.000000000000e+00   2.000000000000e+00   3.000000000000e+00   4.000000000000e+00   5.000000000000e+00   6.000000000000e+00   7.000000000000e+00   8.000000000000e+00 
  9.000000000000e+00   1.000000000000e+01   1.100000000000e+01   1.200000000000e+01   1.300000000000e+01   1.400000000000e+01   1.500000000000e+01   1.600000000000e+01   1.700000000000e+01 
  1.800000000000e+01   1.900000000000e+01 
Z_COORDINATES 20 float
  0.000000000000e+00   1.000000000000e+00   2.000000000000e+00   3.000000000000e+00   4.000000000000e+00   5.000000000000e+00   6.000000000000e+00   7.000000000000e+00   8.000000000000e+00 
  9.000000000000e+00   1.000000000000e+01   1.100000000000e+01   1.200000000000e+01   1.300000000000e+01   1.400000000000e+01   1.500000000000e+01   1.600000000000e+01   1.700000000000e+01 
  1.800000000000e+01   1.900000000000e+01 
CELL_DATA 6859
POINT_DATA 8000
SCALARS pressure float
LOOKUP_TABLE default
  0.000000000000e+00   0.000000000000e+00   0.000000000000e+00   0.000000000000e+00   0.000000000000e+00   0.000000000000e+00   0.000000000000e+00   0.000000000000e+00   0.000000000000e+00 
  0.000000000000e+00   0.000000000000e+00   0.000000000000e+00   0.000000000000e+00   0.000000000000e+00   0.000000000000e+00   0.000000000000e+00   0.000000000000e+00   0.000000000000e+00 
  0.000000000000e+00   0.000000000000e+00   0.000000000000e+00   0.000000000000e+00   0.000000000000e+00   0.000000000000e+00   0.000000000000e+00   0.000000000000e+00   0.000000000000e+00 
  0.000000000000e+00   0.000000000000e+00   0.000000000000e+00   0.000000000000e+00   0.000000000000e+00   0.000000000000e+00   0.000000000000e+00   0.000000000000e+00   0.000000000000e+00 
  0.000000000000e+00   0.000000000000e+00   0.000000000000e+00   0.000000000000e+00   0.000000000000e+00   0.000000000000e+00   0.000000000000e+00   0.000000000000e+00   0.000000000000e+00 
  0.000000000000e+00   0.000000000000e+00   0.000000000000e+00   0.000000000000e+00   0.000000000000e+00   0.000000000000e+00   0.000000000000e+00   0.000000000000e+00   0.000000000000e+00 
  0.000000000000e+00   0.000000000000e+00   0.000000000000e+00   0.000000000000e+00   0.000000000000e+00   0.000000000000e+00   0.000000000000e+00   0.000000000000e+00   0.000000000000e+00 
  0.000000000000e+00   0.000000000000e+00   0.000000000000e+00   0.000000000000e+00   0.000000000000e+00   0.000000000000e+00   0.000000000000e+00   0.000000000000e+00   0.000000000000e+00 
  0.000000000000e+00   0.000000000000e+00   0.000000000000e+00   0.000000000000e+00   0.000000000000e+00   0.000000000000e+00   0.000000000000e+00   0.000000000000e+00   0.000000000000e+00 
  0.000000000000e+00   0.000000000000e+00   0.000000000000e+00   0.000000000000e+00   0.000000000000e+00   0.000000000000e+00   0.000000000000e+00   0.000000000000e+00   0.000000000000e+00 
  0.000000000000e+00   0.000000000000e+00   0.000000000000e+00   0.000000000000e+00   0.000000000000e+00   0.000000000000e+00   0.000000000000e+00   0.000000000000e+00   0.000000000000e+00 
  0.000000000000e+00   0.000000000000e+00   0.000000000000e+00   0.000000000000e+00   0.000000000000e+00   0.000000000000e+00   0.000000000000e+00   0.000000000000e+00   0.000000000000e+00 
  0.000000000000e+00   0.000000000000e+00   0.000000000000e+00   0.000000000000e+00   0.000000000000e+00   0.000000000000e+00   0.000000000000e+00   0.000000000000e+00   0.000000000000e+00 
  0.000000000000e+00   0.000000000000e+00   0.000000000000e+00   0.000000000000e+00   0.000000000000e+00   0.000000000000e+00   0.000000000000e+00   0.000000000000e+00   0.000000000000e+00 
  0.000000000000e+00   0.000000000000e+00   0.000000000000e+00   0.000000000000e+00   0.000000000000e+00   0.000000000000e+00   0.000000000000e+00   0.000000000000e+00   0.000000000000e+00 
  0.000000000000e+00   0.000000000000e+00   0.000000000000e+00   0.000000000000e+00   0.000000000000e+00   0.000000000000e+00   0.000000000000e+00   0.000000000000e+00   0.000000000000e+00 
  0.000000000000e+00   0.000000000000e+00   0.000000000000e+00   0.000000000000e+00   0.000000000000e+00   0.000000000000e+00   0.000000000000e+00   0.000000000000e+00   0.000000000000e+00 
  0.000000000000e+00   0.000000000000e+00   0.000000000000e+00   0.000000000000e+00   0.000000000000e+00   0.000000000000e+00   0.000000000000e+00   0.000000000000e+00   0.000000000000e+00 
  0.000000000000e+00   0.000000000000e+00   0.000000000000e+00   0.000000000000e+00   0.000000000000e+00   0.000000000000e+00   0.000000000000e+00   0.000000000000e+00   0.000000000000e+00 
  0.000000000000e+00   0.000000000000e+00   0.000000000000e+00   0.000000000000e+00   0.000000000000e+00   0.000000000000e+00   0.000000000000e+00   0.000000000000e+00   0.000000000000e+00 
  0.000000000000e+00   0.000000000000e+00   0.000000000000e+00   0.000000000000e+00   0.000000000000e+00   0.000000000000e+00   0.000000000000e+00   0.000000000000e+00   0.000000000000e+00 
  0.000000000000e+00   0.000000000000e+00   0.000000000000e+00   0.000000000000e+00   0.000000000000e+00   0.000000000000e+00   0.000000000000e+00   0.000000000000e+00   0.000000000000e+00 
  0.000000000000e+00   0.000000000000e+00   0.000000000000e+00   0.000000000000e+00   0.000000000000e+00   0.000000000000e+00   0.000000000000e+00   0.000000000000e+00   0.000000000000e+00 
  0.000000000000e+00   0.000000000000e+00   0.000000000000e+00   0.000000000000e+00   0.000000000000e+00   0.000000000000e+00   0.000000000000e+00   0.000000000000e+00   0.000000000000e+00 
  0.000000000000e+00   0.000000000000e+00   0.000000000000e+00   0.000000000000e+00   0.000000000000e+00   0.000000000000e+00   0.000000000000e+00   0.000000000000e+00   0.000000000000e+00 
  0.000000000000e+00   0.000000000000e+00   0.000000000000e+00   0.000000000000e+00   0.000000000000e+00   0.000000000000e+00   0.000000000000e+00   0.000000000000e+00   0.000000000000e+00 
  0.000000000000e+00   0.000000000000e+00   0.000000000000e+00   0.000000000000e+00   0.000000000000e+00   0.000000000000e+00   0.000000000000e+00   0.000000000000e+00   0.000000000000e+00 
  0.000000000000e+00   0.000000000000e+00   0.000000000000e+00   0.000000000000e+00   0.000000000000e+00   0.000000000000e+00   0.000000000000e+00   0.000000000000e+00   0.000000000000e+00 
  0.000000000000e+00   0.000000000000e+00   0.000000000000e+00   0.000000000000e+00   0.000000000000e+00   0.000000000000e+00   0.000000000000e+00   0.000000000000e+00   0.000000000000e+00 
  0.000000000000e+00   0.000000000000e+00   0.000000000000e+00   0.000000000000e+00   0.000000000000e+00   0.000000000000e+00   0.000000000000e+00   0.000000000000e+00   0.000000000000e+00 
  0.000000000000e+00   0.000000000000e+00   0.000000000000e+00   0.000000000000e+00   0.000000000000e+00   0.000000000000e+00   0.000000000000e+00   0.000000000000e+00   0.000000000000e+00 
  0.000000000000e+00   0.000000000000e+00   0.000000000000e+00   0.000000000000e+00   0.000000000000e+00   0.000000000000e+00   0.000000000000e+00   0.000000000000e+00   0.000000000000e+00 
  0.000000000000e+00   0.000000000000e+00   0.000000000000e+00   0.000000000000e+00   0.000000000000e+00   0.000000000000e+00   0.000000000000e+00   0.000000000000e+00   0.000000000000e+00 
  0.000000000000e+00   0.000000000000e+00   0.000000000000e+00   0.000000000000e+00   0.000000000000e+00   0.000000000000e+00   0.000000000000e+00   0.000000000000e+00   0.000000000000e+00 
  0.000000000000e+00   0.000000000000e+00   0.000000000000e+00   0.000000000000e+00   0.000000000000e+00   0.000000000000e+00   0.000000000000e+00   0.000000000000e+00   0.000000000000e+00 
  0.000000000000e+00   0.000000000000e+00   0.000000000000e+00   0.000000000000e+00   0.000000000000e+00   0.000000000000e+00   0.000000000000e+00   0.000000000000e+00   0.000000000000e+00 
  0.000000000000e+00   0.000000000000e+00   0.000000000000e+00   0.000000000000e+00   0.000000000000e+00   0.000000000000e+00   0.000000000000e+00   0.000000000000e+00   0.000000000000e+00 
  0.000000000000e+00   0.000000000000e+00   0.000000000000e+00   0.000000000000e+00   0.000000000000e+00   0.000000000000e+00   0.000000000000e+00   0.000000000000e+00   0.000000000000e+00 
  0.000000000000e+00   0.000000000000e+00   0.000000000000e+00   0.000000000000e+00   0.000000000000e+00   0.000000000000e+00   0.000000000000e+00   0.000000000000e+00   0.000000000000e+00 
  0.000000000000e+00   0.000000000000e+00   0.000000000000e+00   0.000000000000e+00   0.000000000000e+00   0.000000000000e+00   0.000000000000e+00   0.000000000000e+00   0.000000000000e+00 
  0.000000000000e+00   0.000000000000e+00   0.000000000000e+00   0.000000000000e+00   0.000000000000e+00   0.000000000000e+00   0.000000000000e+00   0.000000000000e+00   0.000000000000e+00 
  0.000000000000e+00   0.000000000000e+00   0.000000000000e+00   0.000000000000e+00   0.000000000000e+00   0.000000000000e+00   0.000000000000e+00   0.000000000000e+00   0.000000000000e+00 
  0.000000000000e+00   0.000000000000e+00   0.000000000000e+00   0.000000000000e+00   0.000000000000e+00   0.000000000000e+00   0.000000000000e+00   0.000000000000e+00   0.000000000000e+00 
  0.000000000000e+00   0.000000000000e+00   0.000000000000e+00   0.000000000000e+00   0.000000000000e+00   0.000000000000e+00   0.000000000000e+00   0.000000000000e+00   0.000000000000e+00 
  0.000000000000e+00   0.000000000000e+00   0.000000000000e+00   0.000000000000e+00   0.000000000000e+00   0.000000000000e+00   0.000000000000e+00   0.000000000000e+00   0.000000000000e+00 
  0.000000000000e+00   0.000000000000e+00   0.000000000000e+00   0.000000000000e+00   0.000000000000e+00   0.000000000000e+00   0.000000000000e+00   0.000000000000e+00   0.000000000000e+00 
  0.000000000000e+00   0.000000000000e+00   0.000000000000e+00   0.000000000000e+00   0.000000000000e+00   0.000000000000e+00   0.000000000000e+00   1.112890148163e+01   1.112938880920e+01 
  1.113036823273e+01   1.113183689117e+01   1.113378810883e+01   1.113619804382e+01   1.113902568817e+01   1.114220714569e+01   1.114565563202e+01   1.114926433563e+01   1.115291404724e+01 
  1.115647697449e+01   1.115982341766e+01   1.116283321381e+01   1.116539001465e+01   1.116740226746e+01   1.116877651215e+01   1.116976070404e+01   0.000000000000e+00   0.000000000000e+00 
  1.107428073883e+01   1.107474994659e+01   1.107569503784e+01   1.107712650299e+01   1.107904624939e+01   1.108144474030e+01   1.108428859711e+01   1.108751773834e+01   1.109104824066e+01 
  1.109476947784e+01   1.109855461121e+01   1.110226917267e+01   1.110577297211e+01   1.110893440247e+01   1.111162948608e+01   1.111375522614e+01   1.111521339417e+01   1.111625194550e+01 
  0.000000000000e+00   0.000000000000e+00   1.104080295563e+01   1.104128170013e+01   1.104225349426e+01   1.104374408722e+01   1.104577159882e+01   1.104833889008e+01   1.105142021179e+01 
  1.105495643616e+01   1.105885505676e+01   1.106299114227e+01   1.106721973419e+01   1.107138538361e+01   1.107532882690e+01   1.107889938354e+01   1.108195304871e+01   1.108436775208e+01 
  1.108603000641e+01   1.108718490601e+01   0.000000000000e+00   0.000000000000e+00   1.105563068390e+01   1.105608272552e+01   1.105702304840e+01   1.105851173401e+01   1.106061172485e+01 
  1.106335830688e+01   1.106674957275e+01   1.107073020935e+01   1.107519340515e+01   1.107998466492e+01   1.108492279053e+01   1.108981418610e+01   1.109446811676e+01   1.109869766235e+01 
  1.110233116150e+01   1.110521221161e+01   1.110720920563e+01   1.110855770111e+01   0.000000000000e+00   0.000000000000e+00   1.104059410095e+01   1.104099369049e+01   1.104186153412e+01 
  1.104332351685e+01   1.104550838470e+01   1.104850387573e+01   1.105233860016e+01   1.105696964264e+01   1.106226158142e+01   1.106801319122e+01   1.107398509979e+01   1.107993125916e+01 
  1.108561420441e+01   1.109080791473e+01   1.109529590607e+01   1.109887504578e+01   1.110137557983e+01   1.110300827026e+01   0.000000000000e+00   0.000000000000e+00   1.097890758514e+01 
  1.097931098938e+01   1.098025417328e+01   1.098193264008e+01   1.098454856873e+01   1.098822307587e+01   1.099300384521e+01   1.099885845184e+01   1.100559997559e+01   1.101294517517e+01 
  1.102057170868e+01   1.102816581726e+01   1.103543663025e+01   1.104211521149e+01   1.104793453217e+01   1.105261993408e+01   1.105591678619e+01   1.105796527863e+01   0.000000000000e+00 
  0.000000000000e+00   1.079364204407e+01   1.079399299622e+01   1.079492855072e+01   1.079676151276e+01   1.079984092712e+01   1.080448341370e+01   1.081079578400e+01   1.081859683990e+01 
  1.082756900787e+01   1.083730220795e+01   1.084736442566e+01   1.085735797882e+01   1.086694526672e+01   1.087581825256e+01   1.088365364075e+01   1.089005661011e+01   1.089461708069e+01 
  1.089729022980e+01   0.000000000000e+00   0.000000000000e+00   1.054419708252e+01   1.054411697388e+01   1.054434490204e+01   1.054545307159e+01   1.054806232452e+01   1.055274200439e+01 
  1.055977058411e+01   1.056897830963e+01   1.057992839813e+01   1.059201908112e+01   1.060464668274e+01   1.061731052399e+01   1.062962436676e+01   1.064124107361e+01   1.065174770355e+01 
  1.066055107117e+01   1.066697216034e+01   1.067061328888e+01   0.000000000000e+00   0.000000000000e+00   1.030024528503e+01   1.029917812347e+01   1.029772949219e+01   1.029692554474e+01 
  1.029782962799e+01   1.030142974854e+01   1.030834579468e+01   1.031860828400e+01   1.033157825470e+01   1.034629726410e+01   1.036187744141e+01   1.037770271301e+01   1.039338779449e+01 
  1.040859889984e+01   1.042282772064e+01   1.043518257141e+01   1.044449710846e+01   1.044966793060e+01   0.000000000000e+00   0.000000000000e+00   9.999394416809e+00   9.997592926025e+00 
  9.995154380798e+00   9.993494987488e+00   9.994043350220e+00   9.998515129089e+00   1.000805282593e+01   1.002259159088e+01   1.004092693329e+01   1.006137371063e+01   1.008255958557e+01 
  1.010376548767e+01   1.012481021881e+01   1.014564704895e+01   1.016586971283e+01   1.018422222137e+01   1.019857120514e+01   1.020625591278e+01   0.000000000000e+00   0.000000000000e+00 
  9.741234779358e+00   9.739454269409e+00   9.738027572632e+00   9.738408088684e+00   9.741871833801e+00   9.751255035400e+00   9.768403053284e+00   9.792854309082e+00   9.822154998779e+00 
  9.853217124939e+00   9.883898735046e+00   9.913471221924e+00   9.942354202271e+00   9.971383094788e+00   1.000083351135e+01   1.002920532227e+01   1.005247402191e+01   1.006446456909e+01 
  0.000000000000e+00   0.000000000000e+00   9.639763832092e+00   9.634581565857e+00   9.629126548767e+00   9.625784873962e+00   9.625366210938e+00   9.634383201599e+00   9.656796455383e+00 
  9.691471099854e+00   9.733343124390e+00   9.776446342468e+00   9.817156791687e+00   9.854944229126e+00   9.891519546509e+00   9.929506301880e+00   9.970822334290e+00   1.001418018341e+01 
  1.005234622955e+01   1.007139015198e+01   0.000000000000e+00   0.000000000000e+00   9.589427947998e+00   9.569717407227e+00   9.545842170715e+00   9.525231361389e+00   9.505272865295e+00 
  9.504578590393e+00   9.532876014709e+00   9.587042808533e+00   9.654274940491e+00   9.719687461853e+00   9.775939941406e+00   9.823848724365e+00   9.868480682373e+00   9.916270256042e+00 
  9.972820281982e+00   1.003864097595e+01   1.010149002075e+01   1.012896060944e+01   0.000000000000e+00   0.000000000000e+00   9.615297317505e+00   9.556626319885e+00   9.490479469299e+00 
  9.439372062683e+00   9.376420021057e+00   9.350944519043e+00   9.384397506714e+00   9.471023559570e+00   9.582158088684e+00   9.680540084839e+00   9.753112792969e+00   9.808371543884e+00 
  9.858691215515e+00   9.916383743286e+00   9.992897987366e+00   1.009247112274e+01   1.019685268402e+01   1.022788524628e+01   0.000000000000e+00   0.000000000000e+00   1.040490531921e+01 
  1.027897071838e+01   1.016600036621e+01   1.011037731171e+01   9.999840736389e+00   9.968058586121e+00   1.004625988007e+01   1.022233390808e+01   1.044109058380e+01   1.061528110504e+01 
  1.072602176666e+01   1.079788303375e+01   1.085636520386e+01   1.092266178131e+01   1.101529026031e+01   1.115006160736e+01   1.131084060669e+01   1.130877876282e+01   0.000000000000e+00 
  0.000000000000e+00   1.333076667786e+01   1.296253967285e+01   1.262213516235e+01   1.247649669647e+01   1.226257228851e+01   1.224480152130e+01   1.245634460449e+01   1.289843082428e+01 
  1.345324134827e+01   1.383624267578e+01   1.402266693115e+01   1.411810302734e+01   1.418084716797e+01   1.424341773987e+01   1.432199954987e+01   1.442620372772e+01   1.454202938080e+01 
  1.428976440430e+01   0.000000000000e+00   0.000000000000e+00   1.910799407959e+01   1.781117439270e+01   1.673616981506e+01   1.619755935669e+01   1.596042823792e+01   1.605761337280e+01 
  1.660431861877e+01   1.778039741516e+01   1.937051582336e+01   2.025339508057e+01   2.053894042969e+01   2.063459587097e+01   2.069165039062e+01   2.075441741943e+01   2.080366516113e+01 
  2.076401901245e+01   2.037322616577e+01   1.909949493408e+01   0.000000000000e+00   0.000000000000e+00   3.160959053040e+01   2.803928947449e+01   2.557391357422e+01   2.449897384644e+01 
  2.414290046692e+01   2.435778999329e+01   2.532733154297e+01   2.769586181641e+01   3.136414146423e+01   3.302272415161e+01   3.339128494263e+01   3.350325393677e+01   3.356664657593e+01 
  3.363808822632e+01   3.367562484741e+01   3.356207275391e+01   3.260185241699e+01   2.931493759155e+01   0.000000000000e+00   0.000000000000e+00   0.000000000000e+00   0.000000000000e+00 
  0.000000000000e+00   0.000000000000e+00   0.000000000000e+00   0.000000000000e+00   0.000000000000e+00   0.000000000000e+00   0.000000000000e+00   0.000000000000e+00   0.000000000000e+00 
  0.000000000000e+00   0.000000000000e+00   0.000000000000e+00   0.000000000000e+00   0.000000000000e+00   0.000000000000e+00   0.000000000000e+00   0.000000000000e+00   0.000000000000e+00 
  0.000000000000e+00   0.000000000000e+00   0.000000000000e+00   0.000000000000e+00   0.000000000000e+00   0.000000000000e+00   0.000000000000e+00   0.000000000000e+00   0.000000000000e+00 
  0.000000000000e+00   0.000000000000e+00   0.000000000000e+00   0.000000000000e+00   0.000000000000e+00   0.000000000000e+00   0.000000000000e+00   0.000000000000e+00   0.000000000000e+00 
  0.000000000000e+00   0.000000000000e+00   1.007879924774e+01   1.007927036285e+01   1.008021736145e+01   1.008163833618e+01   1.008352375031e+01   1.008585453033e+01   1.008858776093e+01 
  1.009166240692e+01   1.009499549866e+01   1.009848308563e+01   1.010201168060e+01   1.010545539856e+01   1.010869026184e+01   1.011159896851e+01   1.011406993866e+01   1.011601352692e+01 
  1.011734104156e+01   1.011829376221e+01   0.000000000000e+00   0.000000000000e+00   1.003023815155e+01   1.003069686890e+01   1.003162002563e+01   1.003301715851e+01   1.003488826752e+01 
  1.003722381592e+01   1.003998851776e+01   1.004312705994e+01   1.004655361176e+01   1.005016231537e+01   1.005383110046e+01   1.005742835999e+01   1.006081962585e+01   1.006387805939e+01 
  1.006648349762e+01   1.006853675842e+01   1.006994438171e+01   1.007094860077e+01   0.000000000000e+00   0.000000000000e+00   9.999173164368e+00   9.999635696411e+00   1.000057411194e+01 
  1.000201225281e+01   1.000397014618e+01   1.000644874573e+01   1.000942325592e+01   1.001283836365e+01   1.001660060883e+01   1.002059268951e+01   1.002467346191e+01   1.002869224548e+01 
  1.003249454498e+01   1.003593540192e+01   1.003887557983e+01   1.004119777679e+01   1.004279613495e+01   1.004390907288e+01   0.000000000000e+00   0.000000000000e+00   1.000451278687e+01 
  1.000497436523e+01   1.000592899323e+01   1.000742721558e+01   1.000952243805e+01   1.001224136353e+01   1.001557540894e+01   1.001946830750e+01   1.002381229401e+01   1.002845954895e+01 
  1.003323554993e+01   1.003795433044e+01   1.004243278503e+01   1.004649543762e+01   1.004997730255e+01   1.005273437500e+01   1.005464172363e+01   1.005593204498e+01   0.000000000000e+00 
  0.000000000000e+00   9.969551086426e+00   9.970007896423e+00   9.970979690552e+00   9.972566604614e+00   9.974866867065e+00   9.977944374084e+00   9.981812477112e+00   9.986414909363e+00 
  9.991619110107e+00   9.997233390808e+00   1.000303077698e+01   1.000877952576e+01   1.001425361633e+01   1.001924133301e+01   1.002354240417e+01   1.002696514130e+01   1.002935123444e+01 
  1.003090286255e+01   0.000000000000e+00   0.000000000000e+00   9.844208717346e+00   9.844706535339e+00   9.845824241638e+00   9.847706794739e+00   9.850501060486e+00   9.854295730591e+00 
  9.859109878540e+00   9.864891052246e+00   9.871460914612e+00   9.878563880920e+00   9.885906219482e+00   9.893195152283e+00   9.900159835815e+00   9.906546592712e+00   9.912107467651e+00 
  9.916577339172e+00   9.919722557068e+00   9.921662330627e+00   0.000000000000e+00   0.000000000000e+00   9.670810699463e+00   9.671151161194e+00   9.672034263611e+00   9.673738479614e+00 
  9.676562309265e+00   9.680772781372e+00   9.686468124390e+00   9.693516731262e+00   9.701660156250e+00   9.710544586182e+00   9.719782829285e+00   9.729012489319e+00   9.737912178040e+00 
  9.746179580688e+00   9.753496170044e+00   9.759476661682e+00   9.763758659363e+00   9.766293525696e+00   0.000000000000e+00   0.000000000000e+00   9.477770805359e+00   9.477719306946e+00 
  9.477943420410e+00   9.478939056396e+00   9.481245040894e+00   9.485357284546e+00   9.491534233093e+00   9.499681472778e+00   9.509449958801e+00   9.520329475403e+00   9.531783103943e+00 
  9.543355941772e+00   9.554677009583e+00   9.565402984619e+00   9.575130462646e+00   9.583290100098e+00   9.589284896851e+00   9.592721939087e+00   0.000000000000e+00   0.000000000000e+00 
  9.232865333557e+00   9.232225418091e+00   9.231553077698e+00   9.231643676758e+00   9.233330726624e+00   9.237428665161e+00   9.244453430176e+00   9.254381179810e+00   9.266672134399e+00 
  9.280527114868e+00   9.295177459717e+00   9.310067176819e+00   9.324820518494e+00   9.339119911194e+00   9.352508544922e+00   9.364156723022e+00   9.372987747192e+00   9.377889633179e+00 
  0.000000000000e+00   0.000000000000e+00   8.933611869812e+00   8.932343482971e+00   8.930830955505e+00   8.930137634277e+00   8.931327819824e+00   8.935884475708e+00   8.944762229919e+00 
  8.957916259766e+00   8.974396705627e+00   8.992870330811e+00   9.012189865112e+00   9.031694412231e+00   9.051150321960e+00   9.070480346680e+00   9.089349746704e+00   9.106631278992e+00 
  9.120312690735e+00   9.127796173096e+00   0.000000000000e+00   0.000000000000e+00   8.583221435547e+00   8.581123352051e+00   8.578883171082e+00   8.577569007874e+00   8.577869415283e+00 
  8.582800865173e+00   8.594395637512e+00   8.612458229065e+00   8.635172843933e+00   8.660201072693e+00   8.685752868652e+00   8.711078643799e+00   8.736335754395e+00   8.762215614319e+00 
  8.789071083069e+00   8.815666198730e+00   8.838146209717e+00   8.850427627563e+00   0.000000000000e+00   0.000000000000e+00   8.233362197876e+00   8.228767395020e+00   8.224242210388e+00 
  8.220614433289e+00   8.215693473816e+00   8.217967033386e+00   8.232024192810e+00   8.256768226624e+00   8.288080215454e+00   8.321694374084e+00   8.354978561401e+00   8.387089729309e+00 
  8.418907165527e+00   8.452822685242e+00   8.491211891174e+00   8.533647537231e+00   8.573265075684e+00   8.594754219055e+00   0.000000000000e+00   0.000000000000e+00   7.872382164001e+00 
  7.860266685486e+00   7.850275516510e+00   7.843145847321e+00   7.820736408234e+00   7.811031341553e+00   7.823700904846e+00   7.855855464935e+00   7.898788928986e+00   7.942664146423e+00 
  7.982923030853e+00   8.019656181335e+00   8.056336402893e+00   8.098937988281e+00   8.153777122498e+00   8.224762916565e+00   8.302195549011e+00   8.342436790466e+00   0.000000000000e+00 
  0.000000000000e+00   7.544280529022e+00   7.513833522797e+00   7.498877525330e+00   7.503709793091e+00   7.431727409363e+00   7.388971805573e+00   7.394743442535e+00   7.440755367279e+00 
  7.506315708160e+00   7.568061351776e+00   7.616055965424e+00   7.657058715820e+00   7.698399066925e+00   7.750236034393e+00   7.829419612885e+00   7.953324317932e+00   8.122221946716e+00 
  8.198321342468e+00   0.000000000000e+00   0.000000000000e+00   7.737116336823e+00   7.645855903625e+00   7.626784801483e+00   7.731752872467e+00   7.528204917908e+00   7.441538810730e+00 
  7.448626995087e+00   7.524612426758e+00   7.636838912964e+00   7.727030277252e+00   7.786036968231e+00   7.824454307556e+00   7.862324714661e+00   7.919687271118e+00   8.019327163696e+00 
  8.224259376526e+00   8.619368553162e+00   8.745951652527e+00   0.000000000000e+00   0.000000000000e+00   9.346601486206e+00   9.076593399048e+00   8.975308418274e+00   9.374619483948e+00 
  8.786720275879e+00   8.642305374146e+00   8.682856559753e+00   8.859660148621e+00   9.127861022949e+00   9.297266960144e+00   9.373689651489e+00   9.407887458801e+00   9.439509391785e+00 
  9.488856315613e+00   9.583967208862e+00   9.821797370911e+00   1.064160919189e+01   1.068398571014e+01   0.000000000000e+00   0.000000000000e+00   1.475900745392e+01   1.378924274445e+01 
  1.319196033478e+01   1.298513984680e+01   1.276027584076e+01   1.271116447449e+01   1.294451332092e+01   1.357986640930e+01   1.458152961731e+01   1.498918628693e+01   1.508234882355e+01 
  1.511847972870e+01   1.514266395569e+01   1.517870616913e+01   1.523188209534e+01   1.530880546570e+01   1.528794384003e+01   1.429384708405e+01   0.000000000000e+00   0.000000000000e+00 
  2.907744407654e+01   2.494821548462e+01   2.259800529480e+01   2.182121849060e+01   2.161663436890e+01   2.175690078735e+01   2.240859603882e+01   2.456573486328e+01   2.862976264954e+01 
  2.995272254944e+01   2.992502593994e+01   2.990616798401e+01   2.992535209656e+01   2.998722457886e+01   3.008291244507e+01   3.019679450989e+01   2.935700416565e+01   2.547763252258e+01 
  0.000000000000e+00   0.000000000000e+00   0.000000000000e+00   0.000000000000e+00   0.000000000000e+00   0.000000000000e+00   0.000000000000e+00   0.000000000000e+00   0.000000000000e+00 
  0.000000000000e+00   0.000000000000e+00   0.000000000000e+00   0.000000000000e+00   0.000000000000e+00   0.000000000000e+00   0.000000000000e+00   0.000000000000e+00   0.000000000000e+00 
  0.000000000000e+00   0.000000000000e+00   0.000000000000e+00   0.000000000000e+00   0.000000000000e+00   0.000000000000e+00   0.000000000000e+00   0.000000000000e+00   0.000000000000e+00 
  0.000000000000e+00   0.000000000000e+00   0.000000000000e+00   0.000000000000e+00   0.000000000000e+00   0.000000000000e+00   0.000000000000e+00   0.000000000000e+00   0.000000000000e+00 
  0.000000000000e+00   0.000000000000e+00   0.000000000000e+00   0.000000000000e+00   0.000000000000e+00   0.000000000000e+00   8.980176925659e+00   8.980620384216e+00   8.981509208679e+00 
  8.982842445374e+00   8.984610557556e+00   8.986794471741e+00   8.989354133606e+00   8.992233276367e+00   8.995352745056e+00   8.998616218567e+00   9.001915931702e+00   9.005137443542e+00 
  9.008163452148e+00   9.010882377625e+00   9.013192176819e+00   9.015007019043e+00   9.016247749329e+00   9.017136573792e+00   0.000000000000e+00   0.000000000000e+00   8.940384864807e+00 
  8.940822601318e+00   8.941701889038e+00   8.943028450012e+00   8.944803237915e+00   8.947012901306e+00   8.949625015259e+00   8.952581405640e+00   8.955804824829e+00   8.959195137024e+00 
  8.962635993958e+00   8.966006278992e+00   8.969181060791e+00   8.972039222717e+00   8.974471092224e+00   8.976384162903e+00   8.977696418762e+00   8.978630065918e+00   0.000000000000e+00 
  0.000000000000e+00   8.911611557007e+00   8.912052154541e+00   8.912945747375e+00   8.914311408997e+00   8.916162490845e+00   8.918498039246e+00   8.921294212341e+00   8.924494743347e+00 
  8.928012847900e+00   8.931736946106e+00   8.935537338257e+00   8.939270973206e+00   8.942797660828e+00   8.945979118347e+00   8.948692321777e+00   8.950828552246e+00   8.952300071716e+00 
  8.953327178955e+00   0.000000000000e+00   0.000000000000e+00   8.882058143616e+00   8.882512092590e+00   8.883446693420e+00   8.884899139404e+00   8.886907577515e+00   8.889489173889e+00 
  8.892630577087e+00   8.896273612976e+00   8.900320053101e+00   8.904632568359e+00   8.909049987793e+00   8.913402557373e+00   8.917518615723e+00   8.921238899231e+00   8.924418449402e+00 
  8.926925659180e+00   8.928660392761e+00   8.929836273193e+00   0.000000000000e+00   0.000000000000e+00   8.795689582825e+00   8.796157836914e+00   8.797145843506e+00   8.798726081848e+00 
  8.800969123840e+00   8.803917884827e+00   8.807571411133e+00   8.811868667603e+00   8.816688537598e+00   8.821860313416e+00   8.827182769775e+00   8.832445144653e+00   8.837442398071e+00 
  8.841980934143e+00   8.845881462097e+00   8.848969459534e+00   8.851120948792e+00   8.852519989014e+00   0.000000000000e+00   0.000000000000e+00   8.673988342285e+00   8.674412727356e+00 
  8.675356864929e+00   8.676957130432e+00   8.679347991943e+00   8.682626724243e+00   8.686820030212e+00   8.691869735718e+00   8.697626113892e+00   8.703869819641e+00   8.710344314575e+00 
  8.716788291931e+00   8.722953796387e+00   8.728602409363e+00   8.733508110046e+00   8.737427711487e+00   8.740197181702e+00   8.741923332214e+00   0.000000000000e+00   0.000000000000e+00 