# vtk DataFile Version 2.0
Written using VisIt writer
ASCII
DATASET RECTILINEAR_GRID
DIMENSIONS 20 20 20
X_COORDINATES 20 float
  0.000000000000e+00   1.000000000000e+00   2.000000000000e+00   3.000000000000e+00   4.000000000000e+00   5.000000000000e+00   6.000000000000e+00   7.000000000000e+00   8.000000000000e+00 
  9.000000000000e+00   1.000000000000e+01   1.100000000000e+01   1.200000000000e+01   1.300000000000e+01   1.400000000000e+01   1.500000000000e+01   1.600000000000e+01   1.700000000000e+01 
  1.800000000000e+01   1.900000000000e+01 
Y_COORDINATES 20 float
  0.000000000000e+00   1.000000000000e+00   2.000000000000e+00   3.000000000000e+00   4.000000000000e+00   5.000000000000e+00   6.000000000000e+00   7.000000000000e+00   8.000000000000e+00 
  9.000000000000e+00   1.000000000000e+01   1.100000000000e+01   1.200000000000e+01   1.300000000000e+01   1.400000000000e+01   1.500000000000e+01   1.600000000000e+01   1.700000000000e+01 
  1.800000000000e+01   1.900000000000e+01 
Z_COORDINATES 20 float
  0.000000000000e+00   1.000000000000e+00   2.000000000000e+00   3.000000000000e+00   4.000000000000e+00   5.000000000000e+00   6.000000000000e+00   7.000000000000e+00   8.000000000000e+00 
  9.000000000000e+00   1.000000000000e+01   1.100000000000e+01   1.200000000000e+01   1.300000000000e+01   1.400000000000e+01   1.500000000000e+01   1.600000000000e+01   1.700000000000e+01 
  1.800000000000e+01   1.900000000000e+01 
CELL_DATA 6859
POINT_DATA 8000
SCALARS pressure float
LOOKUP_TABLE default
  0.000000000000e+00   0.000000000000e+00   0.000000000000e+00   0.000000000000e+00   0.000000000000e+00   0.000000000000e+00   0.000000000000e+00   0.000000000000e+00   0.000000000000e+00 
  0.000000000000e+00   0.000000000000e+00   0.000000000000e+00   0.000000000000e+00   0.000000000000e+00   0.000000000000e+00   0.000000000000e+00   0.000000000000e+00   0.000000000000e+00 
  0.000000000000e+00   0.000000000000e+00   0.000000000000e+00   0.000000000000e+00   0.000000000000e+00   0.000000000000e+00   0.000000000000e+00   0.000000000000e+00   0.000000000000e+00 
  0.000000000000e+00   0.000000000000e+00   0.000000000000e+00   0.000000000000e+00   0.000000000000e+00   0.000000000000e+00   0.000000000000e+00   0.000000000000e+00   0.000000000000e+00 
  0.000000000000e+00   0.000000000000e+00   0.000000000000e+00   0.000000000000e+00   0.000000000000e+00   0.000000000000e+00   0.000000000000e+00   0.000000000000e+00   0.000000000000e+00 
  0.000000000000e+00   0.000000000000e+00   0.000000000000e+00   0.000000000000e+00   0.000000000000e+00   0.000000000000e+00   0.000000000000e+00   0.000000000000e+00   0.000000000000e+00 
  0.000000000000e+00   0.000000000000e+00   0.000000000000e+00   0.000000000000e+00   0.000000000000e+00   0.000000000000e+00   0.000000000000e+00   0.000000000000e+00   0.000000000000e+00 
  0.000000000000e+00   0.000000000000e+00   0.000000000000e+00   0.000000000000e+00   0.000000000000e+00   0.000000000000e+00   0.000000000000e+00   0.000000000000e+00   0.000000000000e+00 
  0.000000000000e+00   0.000000000000e+00   0.000000000000e+00   0.000000000000e+00   0.000000000000e+00   0.000000000000e+00   0.000000000000e+00   0.000000000000e+00   0.000000000000e+00 
  0.000000000000e+00   0.000000000000e+00   0.000000000000e+00   0.000000000000e+00   0.000000000000e+00   0.000000000000e+00   0.000000000000e+00   0.000000000000e+00   0.000000000000e+00 
  0.000000000000e+00   0.000000000000e+00   0.000000000000e+00   0.000000000000e+00   0.000000000000e+00   0.000000000000e+00   0.000000000000e+00   0.000000000000e+00   0.000000000000e+00 
  0.000000000000e+00   0.000000000000e+00   0.000000000000e+00   0.000000000000e+00   0.000000000000e+00   0.000000000000e+00   0.000000000000e+00   0.000000000000e+00   0.000000000000e+00 
  0.000000000000e+00   0.000000000000e+00   0.000000000000e+00   0.000000000000e+00   0.000000000000e+00   0.000000000000e+00   0.000000000000e+00   0.000000000000e+00   0.000000000000e+00 
  0.000000000000e+00   0.000000000000e+00   0.000000000000e+00   0.000000000000e+00   0.000000000000e+00   0.000000000000e+00   0.000000000000e+00   0.000000000000e+00   0.000000000000e+00 
  0.000000000000e+00   0.000000000000e+00   0.000000000000e+00   0.000000000000e+00   0.000000000000e+00   0.000000000000e+00   0.000000000000e+00   0.000000000000e+00   0.000000000000e+00 
  0.000000000000e+00   0.000000000000e+00   0.000000000000e+00   0.000000000000e+00   0.000000000000e+00   0.000000000000e+00   0.000000000000e+00   0.000000000000e+00   0.000000000000e+00 
  0.000000000000e+00   0.000000000000e+00   0.000000000000e+00   0.000000000000e+00   0.000000000000e+00   0.000000000000e+00   0.000000000000e+00   0.000000000000e+00   0.000000000000e+00 
  0.000000000000e+00   0.000000000000e+00   0.000000000000e+00   0.000000000000e+00   0.000000000000e+00   0.000000000000e+00   0.000000000000e+00   0.000000000000e+00   0.000000000000e+00 
  0.000000000000e+00   0.000000000000e+00   0.000000000000e+00   0.000000000000e+00   0.000000000000e+00   0.000000000000e+00   0.000000000000e+00   0.000000000000e+00   0.000000000000e+00 
  0.000000000000e+00   0.000000000000e+00   0.000000000000e+00   0.000000000000e+00   0.000000000000e+00   0.000000000000e+00   0.000000000000e+00   0.000000000000e+00   0.000000000000e+00 
  0.000000000000e+00   0.000000000000e+00   0.000000000000e+00   0.000000000000e+00   0.000000000000e+00   0.000000000000e+00   0.000000000000e+00   0.000000000000e+00   0.000000000000e+00 
  0.000000000000e+00   0.000000000000e+00   0.000000000000e+00   0.000000000000e+00   0.000000000000e+00   0.000000000000e+00   0.000000000000e+00   0.000000000000e+00   0.000000000000e+00 
  0.000000000000e+00   0.000000000000e+00   0.000000000000e+00   0.000000000000e+00   0.000000000000e+00   0.000000000000e+00   0.000000000000e+00   0.000000000000e+00   0.000000000000e+00 
  0.000000000000e+00   0.000000000000e+00   0.000000000000e+00   0.000000000000e+00   0.000000000000e+00   0.000000000000e+00   0.000000000000e+00   0.000000000000e+00   0.000000000000e+00 
  0.000000000000e+00   0.000000000000e+00   0.000000000000e+00   0.000000000000e+00   0.000000000000e+00   0.000000000000e+00   0.000000000000e+00   0.000000000000e+00   0.000000000000e+00 
  0.000000000000e+00   0.000000000000e+00   0.000000000000e+00   0.000000000000e+00   0.000000000000e+00   0.000000000000e+00   0.000000000000e+00   0.000000000000e+00   0.000000000000e+00 
  0.000000000000e+00   0.000000000000e+00   0.000000000000e+00   0.000000000000e+00   0.000000000000e+00   0.000000000000e+00   0.000000000000e+00   0.000000000000e+00   0.000000000000e+00 
  0.000000000000e+00   0.000000000000e+00   0.000000000000e+00   0.000000000000e+00   0.000000000000e+00   0.000000000000e+00   0.000000000000e+00   0.000000000000e+00   0.000000000000e+00 
  0.000000000000e+00   0.000000000000e+00   0.000000000000e+00   0.000000000000e+00   0.000000000000e+00   0.000000000000e+00   0.000000000000e+00   0.000000000000e+00   0.000000000000e+00 
  0.000000000000e+00   0.000000000000e+00   0.000000000000e+00   0.000000000000e+00   0.000000000000e+00   0.000000000000e+00   0.000000000000e+00   0.000000000000e+00   0.000000000000e+00 
  0.000000000000e+00   0.000000000000e+00   0.000000000000e+00   0.000000000000e+00   0.000000000000e+00   0.000000000000e+00   0.000000000000e+00   0.000000000000e+00   0.000000000000e+00 
  0.000000000000e+00   0.000000000000e+00   0.000000000000e+00   0.000000000000e+00   0.000000000000e+00   0.000000000000e+00   0.000000000000e+00   0.000000000000e+00   0.000000000000e+00 
  0.000000000000e+00   0.000000000000e+00   0.000000000000e+00   0.000000000000e+00   0.000000000000e+00   0.000000000000e+00   0.000000000000e+00   0.000000000000e+00   0.000000000000e+00 
  0.000000000000e+00   0.000000000000e+00   0.000000000000e+00   0.000000000000e+00   0.000000000000e+00   0.000000000000e+00   0.000000000000e+00   0.000000000000e+00   0.000000000000e+00 
  0.000000000000e+00   0.000000000000e+00   0.000000000000e+00   0.000000000000e+00   0.000000000000e+00   0.000000000000e+00   0.000000000000e+00   0.000000000000e+00   0.000000000000e+00 
  0.000000000000e+00   0.000000000000e+00   0.000000000000e+00   0.000000000000e+00   0.000000000000e+00   0.000000000000e+00   0.000000000000e+00   0.000000000000e+00   0.000000000000e+00 
  0.000000000000e+00   0.000000000000e+00   0.000000000000e+00   0.000000000000e+00   0.000000000000e+00   0.000000000000e+00   0.000000000000e+00   0.000000000000e+00   0.000000000000e+00 
  0.000000000000e+00   0.000000000000e+00   0.000000000000e+00   0.000000000000e+00   0.000000000000e+00   0.000000000000e+00   0.000000000000e+00   0.000000000000e+00   0.000000000000e+00 
  0.000000000000e+00   0.000000000000e+00   0.000000000000e+00   0.000000000000e+00   0.000000000000e+00   0.000000000000e+00   0.000000000000e+00   0.000000000000e+00   0.000000000000e+00 
  0.000000000000e+00   0.000000000000e+00   0.000000000000e+00   0.000000000000e+00   0.000000000000e+00   0.000000000000e+00   0.000000000000e+00   0.000000000000e+00   0.000000000000e+00 
  0.000000000000e+00   0.000000000000e+00   0.000000000000e+00   0.000000000000e+00   0.000000000000e+00   0.000000000000e+00   0.000000000000e+00   0.000000000000e+00   0.000000000000e+00 
  0.000000000000e+00   0.000000000000e+00   0.000000000000e+00   0.000000000000e+00   0.000000000000e+00   0.000000000000e+00   0.000000000000e+00   0.000000000000e+00   0.000000000000e+00 
  0.000000000000e+00   0.000000000000e+00   0.000000000000e+00   0.000000000000e+00   0.000000000000e+00   0.000000000000e+00   0.000000000000e+00   0.000000000000e+00   0.000000000000e+00 
  0.000000000000e+00   0.000000000000e+00   0.000000000000e+00   0.000000000000e+00   0.000000000000e+00   0.000000000000e+00   0.000000000000e+00   0.000000000000e+00   0.000000000000e+00 
  0.000000000000e+00   0.000000000000e+00   0.000000000000e+00   0.000000000000e+00   0.000000000000e+00   0.000000000000e+00   0.000000000000e+00   0.000000000000e+00   0.000000000000e+00 
  0.000000000000e+00   0.000000000000e+00   0.000000000000e+00   0.000000000000e+00   0.000000000000e+00   0.000000000000e+00   0.000000000000e+00   0.000000000000e+00   0.000000000000e+00 
  0.000000000000e+00   0.000000000000e+00   0.000000000000e+00   0.000000000000e+00   0.000000000000e+00   0.000000000000e+00   0.000000000000e+00   5.079662799835e+00   4.756846904755e+00 
  4.668896675110e+00   4.523789882660e+00   4.454538822174e+00   4.366971969604e+00   4.161798000336e+00   3.949045181274e+00   3.764639616013e+00   3.453342199326e+00   3.255600690842e+00 
  2.678043127060e+00   2.064382314682e+00   5.064770221710e+00   1.442117571831e+00   1.404438138008e+00   4.091967582703e+00   1.458190679550e+00   0.000000000000e+00   0.000000000000e+00 
  4.989870071411e+00   4.853264331818e+00   4.777017593384e+00   4.677895545959e+00   4.550550460815e+00   4.404953002930e+00   4.209476470947e+00   3.986384630203e+00   3.702237606049e+00 
  3.442739963531e+00   3.211109399796e+00   2.864958286285e+00   2.454247474670e+00   1.932115316391e+00   2.024948120117e+00   1.993002772331e+00   1.727430582047e+00   1.959993481636e+00 
  0.000000000000e+00   0.000000000000e+00   5.407474040985e+00   5.306206226349e+00   5.180521965027e+00   5.060231208801e+00   4.914775848389e+00   4.734627723694e+00   4.517512321472e+00 
  4.206688404083e+00   3.847286224365e+00   3.596785306931e+00   3.401813507080e+00   3.214767456055e+00   3.000431060791e+00   2.770529031754e+00   2.653563022614e+00   2.587946891785e+00 
  2.504966735840e+00   2.510900020599e+00   0.000000000000e+00   0.000000000000e+00   5.901381969452e+00   5.741284370422e+00   5.462913990021e+00   5.212621688843e+00   5.035158634186e+00 
  4.910086154938e+00   4.761053562164e+00   4.378108501434e+00   3.732946157455e+00   3.489976882935e+00   3.385173797607e+00   3.304704427719e+00   3.240501403809e+00   3.140329599380e+00 
  2.992394208908e+00   2.921326160431e+00   2.882356882095e+00   2.881086587906e+00   0.000000000000e+00   0.000000000000e+00   6.789762020111e+00   6.441472530365e+00   5.839545726776e+00 
  5.448871135712e+00   5.290676593781e+00   5.311398029327e+00   5.423338413239e+00   5.073149204254e+00   4.144483566284e+00   4.079936981201e+00   4.212975025177e+00   4.340233802795e+00 
  4.417283058167e+00   4.362035274506e+00   4.200387954712e+00   4.068345546722e+00   4.044590950012e+00   4.041650295258e+00   0.000000000000e+00   0.000000000000e+00   6.335569858551e+00 
  5.781974792480e+00   4.534805297852e+00   4.124580860138e+00   3.969746112823e+00   4.113776206970e+00   5.038855075836e+00   5.469887733459e+00   5.948248386383e+00   7.062525749207e+00 
  7.888431072235e+00   8.391567230225e+00   8.676748275757e+00   8.748858451843e+00   8.640237808228e+00   8.665255546570e+00   8.735621452332e+00   8.769646644592e+00   0.000000000000e+00 
  0.000000000000e+00   5.945856571198e+00   4.918246269226e+00   2.049705743790e+00   3.208114147186e+00   2.016570568085e+00   1.468866944313e+00   4.285699367523e+00   5.767325401306e+00 
  7.659757137299e+00   1.076843166351e+01   1.247422218323e+01   1.348207473755e+01   1.404347229004e+01   1.420156860352e+01   1.415208530426e+01   1.451178836823e+01   1.475144767761e+01 
  1.482508277893e+01   0.000000000000e+00   0.000000000000e+00   6.664283752441e+00   5.975078582764e+00   4.776060104370e+00   4.447945594788e+00   4.235653400421e+00   4.057578563690e+00 
  4.931524753571e+00   6.039822101593e+00   7.619519233704e+00   9.379589080811e+00   1.031635665894e+01   1.076021289825e+01   1.101539993286e+01   1.112618064880e+01   1.117848205566e+01 
  1.135392475128e+01   1.146726036072e+01   1.150014686584e+01   0.000000000000e+00   0.000000000000e+00   9.166496276855e+00   7.787013053894e+00   6.756278514862e+00   7.078267574310e+00 
  7.479939937592e+00   6.394921302795e+00   5.115310668945e+00   6.981148719788e+00   8.961286544800e+00   8.782402992249e+00   8.454973220825e+00   8.450369834900e+00   8.491991043091e+00 
  8.543435096741e+00   8.568016052246e+00   8.612452507019e+00   8.684102058411e+00   8.709918022156e+00   0.000000000000e+00   0.000000000000e+00   1.282965278625e+01   9.598204612732e+00 
  8.362563133240e+00   1.024434375763e+01   1.179365158081e+01   8.820755004883e+00   1.719977736473e+00   8.159187316895e+00   1.196527862549e+01   9.819285392761e+00   8.015955924988e+00 
  7.661883831024e+00   7.525696277618e+00   7.289731025696e+00   7.271805286407e+00   7.516175746918e+00   7.561868190765e+00   7.292414665222e+00   0.000000000000e+00   0.000000000000e+00 
  1.018711948395e+01   8.537016868591e+00   7.817240715027e+00   8.609922409058e+00   9.251384735107e+00   7.847596168518e+00   6.162910938263e+00   7.665265560150e+00   9.596199035645e+00 
  8.422921180725e+00   7.397531509399e+00   7.077751159668e+00   6.913413524628e+00   6.767104625702e+00   6.724131584167e+00   6.801366806030e+00   6.852415084839e+00   6.673276424408e+00 
  0.000000000000e+00   0.000000000000e+00   7.981881618500e+00   7.633550167084e+00   7.318366527557e+00   7.150393009186e+00   7.021002769470e+00   6.628349304199e+00   6.287856101990e+00 
  6.892016887665e+00   7.324027061462e+00   7.203660964966e+00   6.853542804718e+00   6.544076442719e+00   6.365279674530e+00   6.306581020355e+00   6.256545066833e+00   6.180355072021e+00 
  6.180515289307e+00   6.202138423920e+00   0.000000000000e+00   0.000000000000e+00   7.221624374390e+00   7.025768756866e+00   6.814340114594e+00   6.930517196655e+00   6.823707580566e+00 
  6.468949317932e+00   6.332964897156e+00   6.730677604675e+00   6.664059162140e+00   6.608226299286e+00   6.504180908203e+00   6.305797576904e+00   6.294909477234e+00   6.159378528595e+00 
  6.136227607727e+00   6.141745090485e+00   6.180393218994e+00   6.089859008789e+00   0.000000000000e+00   0.000000000000e+00   6.836257457733e+00   6.720965385437e+00   6.680454254150e+00 
  6.567329406738e+00   6.490550994873e+00   6.349395275116e+00   6.298807621002e+00   6.403477191925e+00   6.359493255615e+00   6.333831310272e+00   6.278034210205e+00   6.164583683014e+00 
  6.137595653534e+00   6.062028408051e+00   6.062318325043e+00   6.016672611237e+00   6.075578212738e+00   5.992418766022e+00   0.000000000000e+00   0.000000000000e+00   6.625948429108e+00 
  6.507397174835e+00   6.466861724854e+00   6.345929622650e+00   6.285201072693e+00   6.249912738800e+00   6.218245506287e+00   6.177315235138e+00   6.214396953583e+00   6.194101810455e+00 
  6.144097328186e+00   6.113907337189e+00   6.083550453186e+00   6.075644493103e+00   6.088687419891e+00   6.063328742981e+00   6.136073589325e+00   5.972650527954e+00   0.000000000000e+00 
  0.000000000000e+00   6.481256961823e+00   6.407958030701e+00   6.399650573730e+00   6.384619712830e+00   6.345535755157e+00   6.287761688232e+00   6.241530418396e+00   6.221037387848e+00 
  6.196061611176e+00   6.185318470001e+00   6.168278217316e+00   6.150079250336e+00   6.144655704498e+00   6.138604640961e+00   6.141773223877e+00   6.134901046753e+00   6.179545879364e+00 
  6.087084293365e+00   0.000000000000e+00   0.000000000000e+00   6.327233314514e+00   6.360244750977e+00   6.388894557953e+00   6.367138862610e+00   6.319194793701e+00   6.265647411346e+00 
  6.204553604126e+00   6.183291435242e+00   6.156907558441e+00   6.146982192993e+00   6.146651268005e+00   6.133660316467e+00   6.127720355988e+00   6.120894432068e+00   6.160544395447e+00 
  6.159662723541e+00   6.152012825012e+00   6.138750553131e+00   0.000000000000e+00   0.000000000000e+00   6.491785049438e+00   6.412900924683e+00   6.376955986023e+00   6.368510723114e+00 
  6.344681262970e+00   6.311874866486e+00   6.284237384796e+00   6.226850509644e+00   6.203589439392e+00   6.183974266052e+00   6.147202014923e+00   6.165236473083e+00   6.207345008850e+00 
  6.251156330109e+00   6.230372428894e+00   6.241480827332e+00   6.218941688538e+00   6.214114189148e+00   0.000000000000e+00   0.000000000000e+00   0.000000000000e+00   0.000000000000e+00 
  0.000000000000e+00   0.000000000000e+00   0.000000000000e+00   0.000000000000e+00   0.000000000000e+00   0.000000000000e+00   0.000000000000e+00   0.000000000000e+00   0.000000000000e+00 
  0.000000000000e+00   0.000000000000e+00   0.000000000000e+00   0.000000000000e+00   0.000000000000e+00   0.000000000000e+00   0.000000000000e+00   0.000000000000e+00   0.000000000000e+00 
  0.000000000000e+00   0.000000000000e+00   0.000000000000e+00   0.000000000000e+00   0.000000000000e+00   0.000000000000e+00   0.000000000000e+00   0.000000000000e+00   0.000000000000e+00 
  0.000000000000e+00   0.000000000000e+00   0.000000000000e+00   0.000000000000e+00   0.000000000000e+00   0.000000000000e+00   0.000000000000e+00   0.000000000000e+00   0.000000000000e+00 
  0.000000000000e+00   0.000000000000e+00   3.587317466736e+00   3.470418930054e+00   3.443147182465e+00   3.394612312317e+00   3.307179450989e+00   3.172177553177e+00   3.011057376862e+00 
  2.824336528778e+00   2.620757818222e+00   2.397433996201e+00   2.171283721924e+00   1.815904974937e+00   1.426135301590e+00   8.969539999962e-01   1.038185596466e+00   1.010034322739e+00 
  7.326096296310e-01   9.559829831123e-01   0.000000000000e+00   0.000000000000e+00   3.784665584564e+00   3.725149393082e+00   3.640691757202e+00   3.535929203033e+00   3.433017253876e+00 
  3.331311702728e+00   3.147372007370e+00   2.950509071350e+00   2.681266546249e+00   2.455176353455e+00   2.235392093658e+00   2.039168357849e+00   1.726386308670e+00   1.457224011421e+00 
  1.368838906288e+00   1.343614459038e+00   1.241004228592e+00   1.346618890762e+00   0.000000000000e+00   0.000000000000e+00   4.206892013550e+00   4.080258846283e+00   3.963087558746e+00 
  3.864853143692e+00   3.760825395584e+00   3.590648412704e+00   3.368593692780e+00   3.037191629410e+00   2.630758762360e+00   2.359617948532e+00   2.200500488281e+00   2.050053119659e+00 
  1.880008816719e+00   1.713139653206e+00   1.619929194450e+00   1.560801506042e+00   1.495120525360e+00   1.492284893990e+00   0.000000000000e+00   0.000000000000e+00   5.090598106384e+00 
  4.933223247528e+00   4.695881843567e+00   4.479699611664e+00   4.332675457001e+00   4.198174953461e+00   3.981322288513e+00   3.444896697998e+00   2.351743459702e+00   2.000307798386e+00 
  1.850625514984e+00   1.757872104645e+00   1.697325348854e+00   1.603958129883e+00   1.431196808815e+00   1.347029805183e+00   1.316082000732e+00   1.298761367798e+00   0.000000000000e+00 
  0.000000000000e+00   6.470455646515e+00   6.191621303558e+00   5.760789871216e+00   5.443951129913e+00   5.272821426392e+00   5.198742389679e+00   5.065887928009e+00   4.124573230743e+00 
  2.160153865814e+00   2.060652017593e+00   2.060421943665e+00   2.087640762329e+00   2.100424289703e+00   2.081139802933e+00   2.257770776749e+00   2.930891275406e+00   3.196258544922e+00 
  3.301601171494e+00   0.000000000000e+00   0.000000000000e+00   5.519162654877e+00   5.167980194092e+00   4.562100410461e+00   4.223926067352e+00   4.072787761688e+00   4.094502449036e+00 
  4.368852138519e+00   4.347595214844e+00   3.924863338470e+00   4.370049476624e+00   4.790224075317e+00   5.076086044312e+00   5.254538059235e+00   5.304216861725e+00   5.200153827667e+00 
  5.180239200592e+00   5.213665008545e+00   5.229491233826e+00   0.000000000000e+00   0.000000000000e+00   4.959744453430e+00   4.470364570618e+00   3.371537923813e+00   3.069007873535e+00 
  2.930851936340e+00   3.006174087524e+00   3.913937330246e+00   4.542280197144e+00   5.320447921753e+00   6.539564609528e+00   7.387479305267e+00   7.883520603180e+00   8.154157638550e+00 
  8.252093315125e+00   8.255578994751e+00   8.349665641785e+00   8.434490203857e+00   8.470992088318e+00   0.000000000000e+00   0.000000000000e+00   5.454968929291e+00   4.935478687286e+00 
  4.232576847076e+00   3.907840251923e+00   3.826122283936e+00   3.813662528992e+00   4.176894187927e+00   4.884432792664e+00   5.708756923676e+00   6.522216320038e+00   7.120425224304e+00 
  7.387350559235e+00   7.514460086823e+00   7.598571777344e+00   7.663404464722e+00   7.722723484039e+00   7.776139259338e+00   7.795665740967e+00   0.000000000000e+00   0.000000000000e+00 
  6.852396011353e+00   6.048923015594e+00   5.388055324554e+00   5.364810466766e+00   5.451985359192e+00   4.986854076385e+00   4.688147068024e+00   5.513165950775e+00   6.520362377167e+00 
  6.667896747589e+00   6.682059764862e+00   6.698367595673e+00   6.722973823547e+00   6.763310909271e+00   6.788025379181e+00   6.803176403046e+00   6.838845252991e+00   6.868741512299e+00 
  0.000000000000e+00   0.000000000000e+00   8.387726783752e+00   7.038923740387e+00   6.271134376526e+00   6.718641281128e+00   7.144351005554e+00   6.089228153229e+00   4.634810924530e+00 
  6.250227928162e+00   7.783782482147e+00   6.979960918427e+00   6.184912681580e+00   5.925281524658e+00   5.820115089417e+00   5.750714778900e+00   5.725063323975e+00   5.743258476257e+00 
  5.770723342896e+00   5.738015651703e+00   0.000000000000e+00   0.000000000000e+00   7.270957946777e+00   6.574195384979e+00   6.128957748413e+00   6.163821697235e+00   6.209355354309e+00 
  5.594184398651e+00   5.180871486664e+00   6.110319137573e+00   7.281332492828e+00   6.601858139038e+00   5.919940948486e+00   5.606877803802e+00   5.451525688171e+00   5.388160228729e+00 
  5.351374626160e+00   5.319595336914e+00   5.345008850098e+00   5.317581176758e+00   0.000000000000e+00   0.000000000000e+00   6.539566993713e+00   6.226865768433e+00   5.939212322235e+00 
  5.812485218048e+00   5.725163459778e+00   5.495097637177e+00   5.378538131714e+00   5.745130062103e+00   6.178003311157e+00   5.926833152771e+00   5.572164535522e+00   5.335514068604e+00 
  5.193814277649e+00   5.126866817474e+00   5.093891620636e+00   5.062361717224e+00   5.061448097229e+00   5.071899890900e+00   0.000000000000e+00   0.000000000000e+00   5.996663093567e+00 
  5.829596519470e+00   5.664359092712e+00   5.483175277710e+00   5.351213455200e+00   5.189877986908e+00   5.133306503296e+00   5.289905071259e+00   5.370890140533e+00   5.349411010742e+00 
  5.217656135559e+00   5.083096027374e+00   5.021945953369e+00   4.959918498993e+00   4.940276622772e+00   4.912145137787e+00   4.918162822723e+00   4.887644767761e+00   0.000000000000e+00 
  0.000000000000e+00   5.656443595886e+00   5.628613471985e+00   5.839686870575e+00   5.442059993744e+00   5.261170387268e+00   5.226945877075e+00   5.294874668121e+00   5.194290161133e+00 
  5.196039676666e+00   5.184583187103e+00   5.127674579620e+00   5.143381595612e+00   5.009665489197e+00   4.979779720306e+00   5.066127777100e+00   4.956593513489e+00   4.960280418396e+00 
  4.941619396210e+00   0.000000000000e+00   0.000000000000e+00   5.549165725708e+00   5.467096805573e+00   5.546554565430e+00   5.352180004120e+00   5.265865802765e+00   5.214874744415e+00 
  5.218574047089e+00   5.146053791046e+00   5.144627094269e+00   5.132727146149e+00   5.090844154358e+00   5.107084274292e+00   5.042850971222e+00   5.041391849518e+00   5.089763164520e+00 
  5.035105705261e+00   5.060550212860e+00   4.985579013824e+00   0.000000000000e+00   0.000000000000e+00   5.390999317169e+00   5.373208522797e+00   5.365167617798e+00   5.341358184814e+00 
  5.305989265442e+00   5.247314929962e+00   5.194261550903e+00   5.163311004639e+00   5.147678852081e+00   5.136946678162e+00   5.121145725250e+00   5.109348297119e+00   5.120801925659e+00 
  5.128740787506e+00   5.137386798859e+00   5.143496513367e+00   5.159740924835e+00   5.073229789734e+00   0.000000000000e+00   0.000000000000e+00   5.355525016785e+00   5.370494365692e+00 
  5.373461723328e+00   5.342731952667e+00   5.273350238800e+00   5.209717273712e+00   5.153823375702e+00   5.106510639191e+00   5.087083816528e+00   5.084192752838e+00   5.091157436371e+00 
  5.074960231781e+00   5.080678462982e+00   5.105519294739e+00   5.136832714081e+00   5.163942337036e+00   5.156852722168e+00   5.149044513702e+00   0.000000000000e+00   0.000000000000e+00 
  5.413485050201e+00   5.394889354706e+00   5.378539562225e+00   5.374211788177e+00   5.369949340820e+00   5.340582847595e+00   5.305238723755e+00   5.270637512207e+00   5.237201213837e+00 
  5.217908859253e+00   5.194992542267e+00   5.216061592102e+00   5.246187210083e+00   5.264618873596e+00   5.282048225403e+00   5.267705917358e+00   5.246040344238e+00   5.240983486176e+00 
  0.000000000000e+00   0.000000000000e+00   0.000000000000e+00   0.000000000000e+00   0.000000000000e+00   0.000000000000e+00   0.000000000000e+00   0.000000000000e+00   0.000000000000e+00 
  0.000000000000e+00   0.000000000000e+00   0.000000000000e+00   0.000000000000e+00   0.000000000000e+00   0.000000000000e+00   0.000000000000e+00   0.000000000000e+00   0.000000000000e+00 
  0.000000000000e+00   0.000000000000e+00   0.000000000000e+00   0.000000000000e+00   0.000000000000e+00   0.000000000000e+00   0.000000000000e+00   0.000000000000e+00   0.000000000000e+00 
  0.000000000000e+00   0.000000000000e+00   0.000000000000e+00   0.000000000000e+00   0.000000000000e+00   0.000000000000e+00   0.000000000000e+00   0.000000000000e+00   0.000000000000e+00 
  0.000000000000e+00   0.000000000000e+00   0.000000000000e+00   0.000000000000e+00   0.000000000000e+00   0.000000000000e+00   2.391759872437e+00   2.340104341507e+00   2.290571928024e+00 
  2.240731239319e+00   2.184124708176e+00   2.086892366409e+00   1.977331638336e+00   1.843857407570e+00   1.698499798775e+00   1.551630377769e+00   1.391817092896e+00   1.201720595360e+00 
  9.908983707428e-01   7.837427258492e-01   7.444816827774e-01   7.129482030869e-01   6.616512537003e-01   6.869207620621e-01   0.000000000000e+00   0.000000000000e+00   2.441801548004e+00 
  2.336822509766e+00   2.256676912308e+00   2.194927692413e+00   2.147601604462e+00   2.021947145462e+00   1.889471411705e+00   1.736140489578e+00   1.573453307152e+00   1.436167478561e+00 
  1.284137725830e+00   1.127927303314e+00   9.623433351517e-01   8.253611326218e-01   7.762858271599e-01   7.516734004021e-01   7.098937630653e-01   7.039728164673e-01   0.000000000000e+00 
  0.000000000000e+00   2.721312999725e+00   2.480299711227e+00   2.363000631332e+00   2.305859804153e+00   2.330552577972e+00   2.138857364655e+00   1.984644770622e+00   1.784176468849e+00 
  1.580549240112e+00   1.368723988533e+00   1.296170234680e+00   1.214591741562e+00   1.144354104996e+00   1.026677131653e+00   9.384526610374e-01   8.871668577194e-01   8.556919097900e-01 
  8.468343615532e-01   0.000000000000e+00   0.000000000000e+00   3.353812932968e+00   3.201831102371e+00   3.044152498245e+00   2.918377399445e+00   2.842056512833e+00   2.710122585297e+00 
  2.536393642426e+00   2.209899425507e+00   1.725445985794e+00   1.475594043732e+00   1.385665297508e+00   1.331915020943e+00   1.294740080833e+00   1.213738203049e+00   1.082622051239e+00 
  1.001753330231e+00   9.724278450012e-01   9.541842341423e-01   0.000000000000e+00   0.000000000000e+00   3.910564184189e+00   3.742912769318e+00   3.505143880844e+00   3.316919088364e+00 
  3.201262235641e+00   3.113085985184e+00   2.978623390198e+00   2.551742553711e+00   1.604449987411e+00   1.411592602730e+00   1.385919094086e+00   1.407308101654e+00   1.428115010262e+00 
  1.377364873886e+00   1.214790701866e+00   1.126528978348e+00   1.103276491165e+00   1.089327335358e+00   0.000000000000e+00   0.000000000000e+00   3.606621265411e+00   3.411473512650e+00 
  3.114942789078e+00   2.905951023102e+00   2.803728580475e+00   2.788483381271e+00   2.836294651031e+00   2.778175830841e+00   2.597182989120e+00   2.699737310410e+00   2.868804454803e+00 
  3.013359785080e+00   3.103690385818e+00   3.121477603912e+00   3.075168848038e+00   3.056248188019e+00   3.063771963120e+00   3.061524629593e+00   0.000000000000e+00   0.000000000000e+00 