# vtk DataFile Version 2.0
Written using VisIt writer
ASCII
DATASET RECTILINEAR_GRID
DIMENSIONS 20 20 20
X_COORDINATES 20 float
  0.000000000000e+00   1.000000000000e+00   2.000000000000e+00   3.000000000000e+00   4.000000000000e+00   5.000000000000e+00   6.000000000000e+00   7.000000000000e+00   8.000000000000e+00 
  9.000000000000e+00   1.000000000000e+01   1.100000000000e+01   1.200000000000e+01   1.300000000000e+01   1.400000000000e+01   1.500000000000e+01   1.600000000000e+01   1.700000000000e+01 
  1.800000000000e+01   1.900000000000e+01 
Y_COORDINATES 20 float
  0.000000000000e+00   1.000000000000e+00   2.000000000000e+00   3.000000000000e+00   4.000000000000e+00   5.000000000000e+00   6.000000000000e+00   7.000000000000e+00   8.000000000000e+00 
  9.000000000000e+00   1.000000000000e+01   1.100000000000e+01   1.200000000000e+01   1.300000000000e+01   1.400000000000e+01   1.500000000000e+01   1.600000000000e+01   1.700000000000e+01 
  1.800000000000e+01   1.900000000000e+01 
Z_COORDINATES 20 float
  0.000000000000e+00   1.000000000000e+00   2.000000000000e+00   3.000000000000e+00   4.000000000000e+00   5.000000000000e+00   6.000000000000e+00   7.000000000000e+00   8.000000000000e+00 
  9.000000000000e+00   1.000000000000e+01   1.100000000000e+01   1.200000000000e+01   1.300000000000e+01   1.400000000000e+01   1.500000000000e+01   1.600000000000e+01   1.700000000000e+01 
  1.800000000000e+01   1.900000000000e+01 
CELL_DATA 6859
POINT_DATA 8000
SCALARS pressure float
LOOKUP_TABLE default
  0.000000000000e+00   0.000000000000e+00   0.000000000000e+00   0.000000000000e+00   0.000000000000e+00   0.000000000000e+00   0.000000000000e+00   0.000000000000e+00   0.000000000000e+00 
  0.000000000000e+00   0.000000000000e+00   0.000000000000e+00   0.000000000000e+00   0.000000000000e+00   0.000000000000e+00   0.000000000000e+00   0.000000000000e+00   0.000000000000e+00 
  0.000000000000e+00   0.000000000000e+00   0.000000000000e+00   0.000000000000e+00   0.000000000000e+00   0.000000000000e+00   0.000000000000e+00   0.000000000000e+00   0.000000000000e+00 
  0.000000000000e+00   0.000000000000e+00   0.000000000000e+00   0.000000000000e+00   0.000000000000e+00   0.000000000000e+00   0.000000000000e+00   0.000000000000e+00   0.000000000000e+00 
  0.000000000000e+00   0.000000000000e+00   0.000000000000e+00   0.000000000000e+00   0.000000000000e+00   0.000000000000e+00   0.000000000000e+00   0.000000000000e+00   0.000000000000e+00 
  0.000000000000e+00   0.000000000000e+00   0.000000000000e+00   0.000000000000e+00   0.000000000000e+00   0.000000000000e+00   0.000000000000e+00   0.000000000000e+00   0.000000000000e+00 
  0.000000000000e+00   0.000000000000e+00   0.000000000000e+00   0.000000000000e+00   0.000000000000e+00   0.000000000000e+00   0.000000000000e+00   0.000000000000e+00   0.000000000000e+00 
  0.000000000000e+00   0.000000000000e+00   0.000000000000e+00   0.000000000000e+00   0.000000000000e+00   0.000000000000e+00   0.000000000000e+00   0.000000000000e+00   0.000000000000e+00 
  0.000000000000e+00   0.000000000000e+00   0.000000000000e+00   0.000000000000e+00   0.000000000000e+00   0.000000000000e+00   0.000000000000e+00   0.000000000000e+00   0.000000000000e+00 
  0.000000000000e+00   0.000000000000e+00   0.000000000000e+00   0.000000000000e+00   0.000000000000e+00   0.000000000000e+00   0.000000000000e+00   0.000000000000e+00   0.000000000000e+00 
  0.000000000000e+00   0.000000000000e+00   0.000000000000e+00   0.000000000000e+00   0.000000000000e+00   0.000000000000e+00   0.000000000000e+00   0.000000000000e+00   0.000000000000e+00 
  0.000000000000e+00   0.000000000000e+00   0.000000000000e+00   0.000000000000e+00   0.000000000000e+00   0.000000000000e+00   0.000000000000e+00   0.000000000000e+00   0.000000000000e+00 
  0.000000000000e+00   0.000000000000e+00   0.000000000000e+00   0.000000000000e+00   0.000000000000e+00   0.000000000000e+00   0.000000000000e+00   0.000000000000e+00   0.000000000000e+00 
  0.000000000000e+00   0.000000000000e+00   0.000000000000e+00   0.000000000000e+00   0.000000000000e+00   0.000000000000e+00   0.000000000000e+00   0.000000000000e+00   0.000000000000e+00 
  0.000000000000e+00   0.000000000000e+00   0.000000000000e+00   0.000000000000e+00   0.000000000000e+00   0.000000000000e+00   0.000000000000e+00   0.000000000000e+00   0.000000000000e+00 
  0.000000000000e+00   0.000000000000e+00   0.000000000000e+00   0.000000000000e+00   0.000000000000e+00   0.000000000000e+00   0.000000000000e+00   0.000000000000e+00   0.000000000000e+00 
  0.000000000000e+00   0.000000000000e+00   0.000000000000e+00   0.000000000000e+00   0.000000000000e+00   0.000000000000e+00   0.000000000000e+00   0.000000000000e+00   0.000000000000e+00 
  0.000000000000e+00   0.000000000000e+00   0.000000000000e+00   0.000000000000e+00   0.000000000000e+00   0.000000000000e+00   0.000000000000e+00   0.000000000000e+00   0.000000000000e+00 
  0.000000000000e+00   0.000000000000e+00   0.000000000000e+00   0.000000000000e+00   0.000000000000e+00   0.000000000000e+00   0.000000000000e+00   0.000000000000e+00   0.000000000000e+00 
  0.000000000000e+00   0.000000000000e+00   0.000000000000e+00   0.000000000000e+00   0.000000000000e+00   0.000000000000e+00   0.000000000000e+00   0.000000000000e+00   0.000000000000e+00 
  0.000000000000e+00   0.000000000000e+00   0.000000000000e+00   0.000000000000e+00   0.000000000000e+00   0.000000000000e+00   0.000000000000e+00   0.000000000000e+00   0.000000000000e+00 
  0.000000000000e+00   0.000000000000e+00   0.000000000000e+00   0.000000000000e+00   0.000000000000e+00   0.000000000000e+00   0.000000000000e+00   0.000000000000e+00   0.000000000000e+00 
  0.000000000000e+00   0.000000000000e+00   0.000000000000e+00   0.000000000000e+00   0.000000000000e+00   0.000000000000e+00   0.000000000000e+00   0.000000000000e+00   0.000000000000e+00 
  0.000000000000e+00   0.000000000000e+00   0.000000000000e+00   0.000000000000e+00   0.000000000000e+00   0.000000000000e+00   0.000000000000e+00   0.000000000000e+00   0.000000000000e+00 
  0.000000000000e+00   0.000000000000e+00   0.000000000000e+00   0.000000000000e+00   0.000000000000e+00   0.000000000000e+00   0.000000000000e+00   0.000000000000e+00   0.000000000000e+00 
  0.000000000000e+00   0.000000000000e+00   0.000000000000e+00   0.000000000000e+00   0.000000000000e+00   0.000000000000e+00   0.000000000000e+00   0.000000000000e+00   0.000000000000e+00 
  0.000000000000e+00   0.000000000000e+00   0.000000000000e+00   0.000000000000e+00   0.000000000000e+00   0.000000000000e+00   0.000000000000e+00   0.000000000000e+00   0.000000000000e+00 
  0.000000000000e+00   0.000000000000e+00   0.000000000000e+00   0.000000000000e+00   0.000000000000e+00   0.000000000000e+00   0.000000000000e+00   0.000000000000e+00   0.000000000000e+00 
  0.000000000000e+00   0.000000000000e+00   0.000000000000e+00   0.000000000000e+00   0.000000000000e+00   0.000000000000e+00   0.000000000000e+00   0.000000000000e+00   0.000000000000e+00 
  0.000000000000e+00   0.000000000000e+00   0.000000000000e+00   0.000000000000e+00   0.000000000000e+00   0.000000000000e+00   0.000000000000e+00   0.000000000000e+00   0.000000000000e+00 
  0.000000000000e+00   0.000000000000e+00   0.000000000000e+00   0.000000000000e+00   0.000000000000e+00   0.000000000000e+00   0.000000000000e+00   0.000000000000e+00   0.000000000000e+00 
  0.000000000000e+00   0.000000000000e+00   0.000000000000e+00   0.000000000000e+00   0.000000000000e+00   0.000000000000e+00   0.000000000000e+00   0.000000000000e+00   0.000000000000e+00 
  0.000000000000e+00   0.000000000000e+00   0.000000000000e+00   0.000000000000e+00   0.000000000000e+00   0.000000000000e+00   0.000000000000e+00   0.000000000000e+00   0.000000000000e+00 
  0.000000000000e+00   0.000000000000e+00   0.000000000000e+00   0.000000000000e+00   0.000000000000e+00   0.000000000000e+00   0.000000000000e+00   0.000000000000e+00   0.000000000000e+00 
  0.000000000000e+00   0.000000000000e+00   0.000000000000e+00   0.000000000000e+00   0.000000000000e+00   0.000000000000e+00   0.000000000000e+00   0.000000000000e+00   0.000000000000e+00 
  0.000000000000e+00   0.000000000000e+00   0.000000000000e+00   0.000000000000e+00   0.000000000000e+00   0.000000000000e+00   0.000000000000e+00   0.000000000000e+00   0.000000000000e+00 
  0.000000000000e+00   0.000000000000e+00   0.000000000000e+00   0.000000000000e+00   0.000000000000e+00   0.000000000000e+00   0.000000000000e+00   0.000000000000e+00   0.000000000000e+00 
  0.000000000000e+00   0.000000000000e+00   0.000000000000e+00   0.000000000000e+00   0.000000000000e+00   0.000000000000e+00   0.000000000000e+00   0.000000000000e+00   0.000000000000e+00 
  0.000000000000e+00   0.000000000000e+00   0.000000000000e+00   0.000000000000e+00   0.000000000000e+00   0.000000000000e+00   0.000000000000e+00   0.000000000000e+00   0.000000000000e+00 
  0.000000000000e+00   0.000000000000e+00   0.000000000000e+00   0.000000000000e+00   0.000000000000e+00   0.000000000000e+00   0.000000000000e+00   0.000000000000e+00   0.000000000000e+00 
  0.000000000000e+00   0.000000000000e+00   0.000000000000e+00   0.000000000000e+00   0.000000000000e+00   0.000000000000e+00   0.000000000000e+00   0.000000000000e+00   0.000000000000e+00 
  0.000000000000e+00   0.000000000000e+00   0.000000000000e+00   0.000000000000e+00   0.000000000000e+00   0.000000000000e+00   0.000000000000e+00   0.000000000000e+00   0.000000000000e+00 
  0.000000000000e+00   0.000000000000e+00   0.000000000000e+00   0.000000000000e+00   0.000000000000e+00   0.000000000000e+00   0.000000000000e+00   0.000000000000e+00   0.000000000000e+00 
  0.000000000000e+00   0.000000000000e+00   0.000000000000e+00   0.000000000000e+00   0.000000000000e+00   0.000000000000e+00   0.000000000000e+00   0.000000000000e+00   0.000000000000e+00 
  0.000000000000e+00   0.000000000000e+00   0.000000000000e+00   0.000000000000e+00   0.000000000000e+00   0.000000000000e+00   0.000000000000e+00   0.000000000000e+00   0.000000000000e+00 
  0.000000000000e+00   0.000000000000e+00   0.000000000000e+00   0.000000000000e+00   0.000000000000e+00   0.000000000000e+00   0.000000000000e+00   0.000000000000e+00   0.000000000000e+00 
  0.000000000000e+00   0.000000000000e+00   0.000000000000e+00   0.000000000000e+00   0.000000000000e+00   0.000000000000e+00   0.000000000000e+00   1.167058944702e+00   1.070832371712e+00 
  1.066941142082e+00   1.047796130180e+00   1.080118894577e+00   1.103742361069e+00   1.113496184349e+00   1.093061089516e+00   1.071051597595e+00   1.094850540161e+00   1.083302497864e+00 
  1.083004832268e+00   1.067594766617e+00   1.062990427017e+00   1.082724928856e+00   1.073040604591e+00   1.084477901459e+00   1.183185577393e+00   0.000000000000e+00   0.000000000000e+00 
  1.073264956474e+00   9.818529486656e-01   9.628815054893e-01   9.837015867233e-01   9.709081649780e-01   9.330810308456e-01   9.108431339264e-01   9.463761448860e-01   9.683701395988e-01 
  9.430509209633e-01   9.611505270004e-01   9.748233556747e-01   9.991070628166e-01   1.023486971855e+00   9.756570458412e-01   1.013188123703e+00   1.014822840691e+00   1.135220050812e+00 
  0.000000000000e+00   0.000000000000e+00   1.043727397919e+00   9.310590028763e-01   9.292177557945e-01   8.980792760849e-01   9.220445156097e-01   9.509288072586e-01   9.340490102768e-01 
  9.363868832588e-01   9.002802371979e-01   9.095882773399e-01   9.081906676292e-01   9.126375913620e-01   9.413873553276e-01   9.428160786629e-01   9.576354026794e-01   9.314765334129e-01 
  9.189164638519e-01   1.051175475121e+00   0.000000000000e+00   0.000000000000e+00   9.818311929703e-01   8.852444291115e-01   8.800099492073e-01   8.849641084671e-01   9.172567129135e-01 
  9.525260925293e-01   8.528850078583e-01   8.829396367073e-01   8.645838499069e-01   8.965201973915e-01   9.399938583374e-01   9.225492477417e-01   9.216848611832e-01   9.465575218201e-01 
  8.979762792587e-01   9.611535072327e-01   9.798621535301e-01   1.148643970490e+00   0.000000000000e+00   0.000000000000e+00   9.704195857048e-01   8.524161577225e-01   8.875245451927e-01 
  8.445701003075e-01   8.111208081245e-01   8.211696743965e-01   8.346702456474e-01   8.603751659393e-01   8.418672084808e-01   8.415915966034e-01   8.352639079094e-01   9.588420987129e-01 
  1.085859775543e+00   1.134678959846e+00   1.072843670845e+00   1.038431167603e+00   9.834541082382e-01   1.108879566193e+00   0.000000000000e+00   0.000000000000e+00   1.003907203674e+00 
  9.381731152534e-01   9.128686785698e-01   9.112967848778e-01   8.811143040657e-01   9.131823182106e-01   8.239660859108e-01   8.849316239357e-01   8.486351966858e-01   9.427118301392e-01 
  9.633368849754e-01   8.629603981972e-01   9.556642770767e-01   9.355070590973e-01   9.875121712685e-01   1.059098720551e+00   1.000215172768e+00   1.030333042145e+00   0.000000000000e+00 
  0.000000000000e+00   1.037608385086e+00   9.195632338524e-01   8.888592123985e-01   9.134798049927e-01   9.288173317909e-01   8.857564330101e-01   8.969346880913e-01   8.647322654724e-01 
  8.756325840950e-01   8.180642724037e-01   8.083063364029e-01   8.679975867271e-01   9.419882297516e-01   9.317232370377e-01   9.548557400703e-01   1.093614578247e+00   1.174162387848e+00 
  1.112890720367e+00   0.000000000000e+00   0.000000000000e+00   9.538591504097e-01   8.641939163208e-01   8.475678563118e-01   8.323507905006e-01   8.188850879669e-01   8.476835489273e-01 
  8.438749313354e-01   8.688154816628e-01   8.383497595787e-01   9.165098667145e-01   1.013625979424e+00   9.461138844490e-01   8.909001350403e-01   8.826586008072e-01   8.512938022614e-01 
  7.906838655472e-01   9.741988182068e-01   8.405714631081e-01   0.000000000000e+00   0.000000000000e+00   1.033908486366e+00   9.049949645996e-01   9.536207914352e-01   9.191424846649e-01 
  9.303247928619e-01   9.262287616730e-01   9.450752139091e-01   9.592979550362e-01   9.550704956055e-01   9.324167370796e-01   8.716803193092e-01   8.548575639725e-01   8.596386313438e-01 
  8.444247841835e-01   8.801659941673e-01   8.782947659492e-01   9.859774708748e-01   8.617320060730e-01   0.000000000000e+00   0.000000000000e+00   1.048747777939e+00   9.442151784897e-01 
  8.750513195992e-01   8.242161870003e-01   8.408116698265e-01   8.502461910248e-01   8.485578894615e-01   8.394155502319e-01   8.288902640343e-01   8.678492903709e-01   9.477469325066e-01 
  9.052631855011e-01   9.323809146881e-01   1.001395702362e+00   9.319232106209e-01   9.226603507996e-01   9.894872903824e-01   1.048649549484e+00   0.000000000000e+00   0.000000000000e+00 
  1.038853645325e+00   9.371979832649e-01   9.416717886925e-01   9.429566264153e-01   9.477237462997e-01   9.129312038422e-01   9.409986734390e-01   9.211326837540e-01   9.457546472549e-01 
  9.124065637589e-01   8.913193345070e-01   9.390428066254e-01   9.581134319305e-01   9.312238097191e-01   9.055228233337e-01   9.356276392937e-01   8.912288546562e-01   1.041963458061e+00 
  0.000000000000e+00   0.000000000000e+00   1.122812509537e+00   9.954236745834e-01   9.055267572403e-01   8.923128247261e-01   9.262542128563e-01   9.444606304169e-01   9.410946965218e-01 
  9.202093482018e-01   8.885504007339e-01   8.548642396927e-01   8.680616617203e-01   1.005979895592e+00   1.280482172966e+00   1.103195309639e+00   1.041865587234e+00   9.342424869537e-01 
  9.429988265038e-01   1.112792134285e+00   0.000000000000e+00   0.000000000000e+00   1.161450743675e+00   1.023421883583e+00   9.178663492203e-01   9.362363815308e-01   1.002697348595e+00 
  1.033343791962e+00   1.013732910156e+00   9.837296009064e-01   8.161560893059e-01   9.478123784065e-01   9.436114430428e-01   9.692990183830e-01   1.016643643379e+00   1.118021965027e+00 
  1.026105046272e+00   1.069475889206e+00   9.455723166466e-01   1.058707594872e+00   0.000000000000e+00   0.000000000000e+00   1.131925106049e+00   9.984133839607e-01   9.454749822617e-01 
  9.866784214973e-01   1.054176330566e+00   1.090713739395e+00   9.769404530525e-01   9.120813608170e-01   9.191358685493e-01   9.082512855530e-01   9.780869483948e-01   1.064428329468e+00 
  1.170542836189e+00   1.271051168442e+00   1.114981174469e+00   5.219793319702e-01   1.018690109253e+00   9.745769500732e-01   0.000000000000e+00   0.000000000000e+00   1.224391460419e+00 
  1.067926049232e+00   1.010677099228e+00   9.878324270248e-01   1.028135895729e+00   1.166444420815e+00   1.032718777657e+00   1.049511671066e+00   9.905751347542e-01   1.001279115677e+00 
  9.464549422264e-01   1.052412033081e+00   1.224207043648e+00   1.074486374855e+00   1.036832928658e+00   1.003776311874e+00   8.972269892693e-01   9.351367950439e-01   0.000000000000e+00 
  0.000000000000e+00   1.052923679352e+00   9.339115023613e-01   8.800249099731e-01   7.911453247070e-01   7.578378915787e-01   6.936336159706e-01   6.390904784203e-01  -1.027417927980e-01 
  8.254121541977e-01   6.656257510185e-01   7.896669507027e-01   9.031462669373e-01   9.731031060219e-01   1.047873497009e+00   1.056144952774e+00   9.936867952347e-01   9.435054063797e-01 
  1.036338806152e+00   0.000000000000e+00   0.000000000000e+00   1.230361819267e+00   1.044996500015e+00   1.061865329742e+00   1.125392079353e+00   1.171129941940e+00   1.237885832787e+00 
  1.107010960579e+00   9.508841633797e-01   9.517616629601e-01   1.101801633835e+00   9.766548871994e-01   1.021099209785e+00   1.119619488716e+00   1.087759733200e+00   1.047922492027e+00 
  1.011790513992e+00   9.911046624184e-01   1.053468585014e+00   0.000000000000e+00   0.000000000000e+00   1.826784014702e+00   1.199967265129e+00   1.753003239632e+00   7.257944941521e-01 
  1.809319376945e+00   7.610460519791e-01   1.405086398125e+00   1.042313933372e+00   9.603003263474e-01   6.198607683182e-01   9.217643141747e-01   9.457373619080e-01   1.333219289780e+00 
  1.488069057465e+00   1.193781018257e+00   9.501740336418e-01   1.810586094856e+00   2.294698953629e+00   0.000000000000e+00   0.000000000000e+00   0.000000000000e+00   0.000000000000e+00 
  0.000000000000e+00   0.000000000000e+00   0.000000000000e+00   0.000000000000e+00   0.000000000000e+00   0.000000000000e+00   0.000000000000e+00   0.000000000000e+00   0.000000000000e+00 
  0.000000000000e+00   0.000000000000e+00   0.000000000000e+00   0.000000000000e+00   0.000000000000e+00   0.000000000000e+00   0.000000000000e+00   0.000000000000e+00   0.000000000000e+00 
  0.000000000000e+00   0.000000000000e+00   0.000000000000e+00   0.000000000000e+00   0.000000000000e+00   0.000000000000e+00   0.000000000000e+00   0.000000000000e+00   0.000000000000e+00 
  0.000000000000e+00   0.000000000000e+00   0.000000000000e+00   0.000000000000e+00   0.000000000000e+00   0.000000000000e+00   0.000000000000e+00   0.000000000000e+00   0.000000000000e+00 
  0.000000000000e+00   0.000000000000e+00   5.046345591545e-01   4.368091523647e-01   4.300041794777e-01   4.525574445724e-01   4.693848192692e-01   4.607551097870e-01   4.434710443020e-01 
  4.081132411957e-01   3.959606885910e-01   4.108266532421e-01   4.264694452286e-01   4.350703954697e-01   4.460015594959e-01   4.566487073898e-01   4.670476317406e-01   4.662749171257e-01 
  4.747481346130e-01   5.222188830376e-01   0.000000000000e+00   0.000000000000e+00   4.482725858688e-01   3.778566420078e-01   3.671973645687e-01   3.477502167225e-01   4.151735007763e-01 
  5.535144209862e-01   4.422862529755e-01   3.732419908047e-01   3.699621856213e-01   3.429623842239e-01   3.231153190136e-01   3.407095968723e-01   3.720367848873e-01   3.775498270988e-01 
  3.891469240189e-01   3.999938666821e-01   3.973570764065e-01   4.825288355350e-01   0.000000000000e+00   0.000000000000e+00   4.381725788116e-01   4.021085798740e-01   3.973987698555e-01 
  3.898052275181e-01   4.417799115181e-01   4.520019888878e-01   4.252486824989e-01   3.890403211117e-01   4.016750454903e-01   4.188709259033e-01   4.154429137707e-01   4.380492568016e-01 
  4.487030804157e-01   4.591313600540e-01   4.520718157291e-01   4.528885781765e-01   4.356160759926e-01   5.245252847672e-01   0.000000000000e+00   0.000000000000e+00   4.465398192406e-01 
  4.347907900810e-01   3.819539844990e-01   3.545369207859e-01   3.016949594021e-01   2.669598460197e-01   3.795054256916e-01   4.031283855438e-01   4.342521131039e-01   3.881119489670e-01 
  3.993249237537e-01   4.081481099129e-01   4.894736707211e-01   5.527302622795e-01   5.758255720139e-01   4.671695232391e-01   4.316499829292e-01   4.997697472572e-01   0.000000000000e+00 
  0.000000000000e+00   3.925307691097e-01   4.042648077011e-01   3.512649834156e-01   3.773950934410e-01   3.542495667934e-01   3.790592849255e-01   3.747037947178e-01   3.565406203270e-01 
  3.972660005093e-01   3.752212822437e-01   3.572898507118e-01   3.424263298512e-01   1.947902143002e-01   2.138895243406e-01   2.368697375059e-01   4.732947945595e-01   6.266857981682e-01 
  7.385965585709e-01   0.000000000000e+00   0.000000000000e+00   3.710975646973e-01   3.618977069855e-01   4.411464929581e-01   3.917566537857e-01   3.580320775509e-01   3.933242559433e-01 
  3.949246108532e-01   4.288935661316e-01   3.877899348736e-01   3.569175899029e-01   3.337420821190e-01   2.452622354031e-01   2.824322283268e-01   2.832861542702e-01   1.774481087923e-01 
  2.399043589830e-01   3.517670929432e-01   3.801304996014e-01   0.000000000000e+00   0.000000000000e+00   3.937249779701e-01   3.928265869617e-01   3.999118506908e-01   3.850783109665e-01 
  4.483446478844e-01   4.200999140739e-01   4.216760993004e-01   4.048982858658e-01   4.322135448456e-01   4.503074586391e-01   4.180669784546e-01   3.991292715073e-01   2.887849807739e-01 
  2.552993595600e-01   2.624692618847e-01   1.781521737576e-01   2.652375698090e-01   2.910637259483e-01   0.000000000000e+00   0.000000000000e+00   4.191978573799e-01   3.663464188576e-01 
  3.684400022030e-01   3.688043653965e-01   3.913146257401e-01   3.411777317524e-01   3.653511703014e-01   3.656181097031e-01   3.727696537971e-01   3.298206627369e-01   3.093024194241e-01 
  3.086088895798e-01   4.396381378174e-01   4.213472008705e-01   3.923633992672e-01   3.883306682110e-01   5.047931075096e-01   5.285984277725e-01   0.000000000000e+00   0.000000000000e+00 
  3.603323101997e-01   3.358321785927e-01   2.930474579334e-01   3.737105429173e-01   3.756750226021e-01   3.925294280052e-01   3.732832372189e-01   3.613800406456e-01   3.905878365040e-01 
  4.279980659485e-01   4.510935544968e-01   4.746118187904e-01   4.236354529858e-01   3.617598712444e-01   4.322596192360e-01   4.458695948124e-01   3.856606185436e-01   4.933668076992e-01 
  0.000000000000e+00   0.000000000000e+00   3.637880384922e-01   3.337439894676e-01   3.945688009262e-01   4.171535372734e-01   3.772923946381e-01   3.776009976864e-01   4.013537466526e-01 
  4.078356027603e-01   3.864091634750e-01   3.572096526623e-01   3.116804361343e-01   3.569861054420e-01   3.145507872105e-01   3.456919789314e-01   3.500545620918e-01   3.958914577961e-01 
  4.184554815292e-01   3.703941702843e-01   0.000000000000e+00   0.000000000000e+00   4.078550338745e-01   3.457491695881e-01   3.022801280022e-01   3.332327604294e-01   3.300589919090e-01 
  3.745036423206e-01   3.267660140991e-01   3.261788487434e-01   3.452784121037e-01   3.692832887173e-01   4.092234075069e-01   4.003325700760e-01   4.299219250679e-01   4.499489963055e-01 
  4.657891094685e-01   4.125326275826e-01   4.761548936367e-01   3.936348259449e-01   0.000000000000e+00   0.000000000000e+00   3.534956574440e-01   2.840580046177e-01   3.983842134476e-01 
  4.091628789902e-01   4.093238413334e-01   4.432896673679e-01   4.571737349033e-01   4.545637667179e-01   4.475591182709e-01   4.034107625484e-01   4.157036840916e-01   3.950193822384e-01 
  4.564479589462e-01   4.000799953938e-01   3.474442660809e-01   3.704915046692e-01   4.441751241684e-01   3.083516657352e-01   0.000000000000e+00   0.000000000000e+00   3.693107962608e-01 
  3.295630216599e-01   3.796332478523e-01   4.109005331993e-01   3.939507603645e-01   4.225008189678e-01   3.933560550213e-01   3.388298749924e-01   3.129703104496e-01   3.509083688259e-01 
  3.664772808552e-01   4.256888329983e-01   4.853343665600e-01   5.630420446396e-01   5.489069819450e-01   4.571343660355e-01   4.852104783058e-01   3.718898296356e-01   0.000000000000e+00 
  0.000000000000e+00   3.464743793011e-01   3.312548398972e-01   4.344977140427e-01   4.261447489262e-01   4.346759021282e-01   4.688265621662e-01   4.163162112236e-01   3.429860770702e-01 
  3.183513283730e-01   3.747247159481e-01   4.467380940914e-01   5.191664099693e-01   6.167114973068e-01   5.599885582924e-01   4.790240824223e-01   4.229848384857e-01   4.846975207329e-01 
  3.436683416367e-01   0.000000000000e+00   0.000000000000e+00   3.948774933815e-01   3.475588560104e-01   3.634955585003e-01   4.111401438713e-01   3.902175724506e-01   4.250541925430e-01 
  3.709727525711e-01   3.250599801540e-01   2.858398556709e-01   2.601925730705e-01   2.900923192501e-01   3.517848551273e-01   4.513345956802e-01   5.078162550926e-01   5.048666596413e-01 
  3.962747156620e-01   6.215331554413e-01   6.029375791550e-01   0.000000000000e+00   0.000000000000e+00   4.872027337551e-01   4.549259841442e-01   4.805035591125e-01   4.921136796474e-01 
  5.340528488159e-01   5.289756059647e-01   4.522843062878e-01   4.011019170284e-01   3.179551362991e-01   2.241077423096e-01   2.342404574156e-01   2.099878638983e-01   2.501838207245e-01 
  3.150811195374e-01   3.556803762913e-01   3.608967959881e-01   3.285873234272e-01   2.735336720943e-01   0.000000000000e+00   0.000000000000e+00   4.010086655617e-01   4.064602255821e-01 
  3.485973179340e-01   3.644824028015e-01   3.960206210613e-01   4.179129600525e-01   3.971882164478e-01   4.069433808327e-01   3.543358445168e-01   3.653198480606e-01   4.180498719215e-01 
  4.354740381241e-01   4.528750777245e-01   4.845153987408e-01   5.008696317673e-01   4.558019340038e-01   4.273504614830e-01   4.620664119720e-01   0.000000000000e+00   0.000000000000e+00 
  5.965403914452e-01   2.151841968298e-01   3.923838436604e-01   3.690357506275e-01   4.059693813324e-01   3.808559775352e-01   3.490618765354e-01   2.370561063290e-01   2.481650710106e-01 
  3.314126729965e-01  -1.486082673073e-01   2.192600518465e-01   4.498007297516e-01   4.505735039711e-01   5.816360712051e-01   5.322436690331e-01   5.704677700996e-01   4.098981916904e-01 
  0.000000000000e+00   0.000000000000e+00   0.000000000000e+00   0.000000000000e+00   0.000000000000e+00   0.000000000000e+00   0.000000000000e+00   0.000000000000e+00   0.000000000000e+00 
  0.000000000000e+00   0.000000000000e+00   0.000000000000e+00   0.000000000000e+00   0.000000000000e+00   0.000000000000e+00   0.000000000000e+00   0.000000000000e+00   0.000000000000e+00 
  0.000000000000e+00   0.000000000000e+00   0.000000000000e+00   0.000000000000e+00   0.000000000000e+00   0.000000000000e+00   0.000000000000e+00   0.000000000000e+00   0.000000000000e+00 
  0.000000000000e+00   0.000000000000e+00   0.000000000000e+00   0.000000000000e+00   0.000000000000e+00   0.000000000000e+00   0.000000000000e+00   0.000000000000e+00   0.000000000000e+00 
  0.000000000000e+00   0.000000000000e+00   0.000000000000e+00   0.000000000000e+00   0.000000000000e+00   0.000000000000e+00   2.310751080513e-01   2.095415294170e-01   2.108772397041e-01 
  2.219772785902e-01   2.546370327473e-01   2.574836313725e-01   2.948447167873e-01   2.548683881760e-01   2.646228671074e-01   2.189192026854e-01   2.117415219545e-01   2.197858542204e-01 
  2.247436940670e-01   2.201206535101e-01   2.200024724007e-01   2.243596017361e-01   2.181281149387e-01   2.684403955936e-01   0.000000000000e+00   0.000000000000e+00   1.975830942392e-01 
  1.894957721233e-01   1.992889791727e-01   2.052815109491e-01   3.305563032627e-01   3.477412164211e-01   2.751828134060e-01   2.058548629284e-01   1.824326068163e-01   2.188979536295e-01 
  2.141877114773e-01   2.130292207003e-01   2.323180437088e-01   2.459744513035e-01   2.129627615213e-01   1.882523447275e-01   1.698944717646e-01   2.356538325548e-01   0.000000000000e+00 
  0.000000000000e+00   2.382955998182e-01   1.929491907358e-01   1.672973781824e-01   1.338821947575e-01   1.025006771088e-01   1.609732061625e-01   5.019661039114e-02   2.214722782373e-01 
  2.333294004202e-01   1.930015981197e-01   1.973854303360e-01   2.014926075935e-01   2.194528877735e-01   2.161029577255e-01   1.880420297384e-01   2.480756789446e-01   2.112574875355e-01 
  2.933037877083e-01   0.000000000000e+00   0.000000000000e+00   1.321187913418e-01   1.461162865162e-01   1.460476815701e-01   1.522247046232e-01   8.002300560474e-02   2.588462233543e-01 
  1.267876923084e-01   1.845612227917e-01   1.580736637115e-01   1.621041148901e-01   1.633632034063e-01   1.453378051519e-01   1.227106750011e-01   1.709705740213e-01   2.795211374760e-01 
  2.182586044073e-01   2.137275636196e-01   2.820498943329e-01   0.000000000000e+00   0.000000000000e+00   1.907542347908e-01   1.518395990133e-01   1.741107106209e-01   1.867411136627e-01 
  1.360402405262e-01   5.914961546659e-02   1.731155365705e-01   1.520173847675e-01   1.953987628222e-01   1.559256762266e-01   1.603243798018e-01   8.238574862480e-02   2.390304803848e-01 
  2.487292587757e-01   6.409544497728e-02   4.635522663593e-01   4.741659760475e-01   5.158487558365e-01   0.000000000000e+00   0.000000000000e+00   1.985476016998e-01   1.650308370590e-01 
  1.542762517929e-01   1.717592626810e-01   1.621549576521e-01   1.327414363623e-01   1.952154189348e-01   1.921586096287e-01   2.026236206293e-01   2.147526144981e-01   1.617783010006e-01 
  1.838688403368e-01   1.260051578283e-01   1.676411777735e-01   3.808458745480e-01   1.736026555300e-01  -1.957742124796e-01  -2.139785885811e-01   0.000000000000e+00   0.000000000000e+00 