# vtk DataFile Version 2.0
Written using VisIt writer
ASCII
DATASET RECTILINEAR_GRID
DIMENSIONS 20 20 20
X_COORDINATES 20 float
  0.000000000000e+00   1.000000000000e+00   2.000000000000e+00   3.000000000000e+00   4.000000000000e+00   5.000000000000e+00   6.000000000000e+00   7.000000000000e+00   8.000000000000e+00 
  9.000000000000e+00   1.000000000000e+01   1.100000000000e+01   1.200000000000e+01   1.300000000000e+01   1.400000000000e+01   1.500000000000e+01   1.600000000000e+01   1.700000000000e+01 
  1.800000000000e+01   1.900000000000e+01 
Y_COORDINATES 20 float
  0.000000000000e+00   1.000000000000e+00   2.000000000000e+00   3.000000000000e+00   4.000000000000e+00   5.000000000000e+00   6.000000000000e+00   7.000000000000e+00   8.000000000000e+00 
  9.000000000000e+00   1.000000000000e+01   1.100000000000e+01   1.200000000000e+01   1.300000000000e+01   1.400000000000e+01   1.500000000000e+01   1.600000000000e+01   1.700000000000e+01 
  1.800000000000e+01   1.900000000000e+01 
Z_COORDINATES 20 float
  0.000000000000e+00   1.000000000000e+00   2.000000000000e+00   3.000000000000e+00   4.000000000000e+00   5.000000000000e+00   6.000000000000e+00   7.000000000000e+00   8.000000000000e+00 
  9.000000000000e+00   1.000000000000e+01   1.100000000000e+01   1.200000000000e+01   1.300000000000e+01   1.400000000000e+01   1.500000000000e+01   1.600000000000e+01   1.700000000000e+01 
  1.800000000000e+01   1.900000000000e+01 
CELL_DATA 6859
POINT_DATA 8000
SCALARS pressure float
LOOKUP_TABLE default
  0.000000000000e+00   0.000000000000e+00   0.000000000000e+00   0.000000000000e+00   0.000000000000e+00   0.000000000000e+00   0.000000000000e+00   0.000000000000e+00   0.000000000000e+00 
  0.000000000000e+00   0.000000000000e+00   0.000000000000e+00   0.000000000000e+00   0.000000000000e+00   0.000000000000e+00   0.000000000000e+00   0.000000000000e+00   0.000000000000e+00 
  0.000000000000e+00   0.000000000000e+00   0.000000000000e+00   0.000000000000e+00   0.000000000000e+00   0.000000000000e+00   0.000000000000e+00   0.000000000000e+00   0.000000000000e+00 
  0.000000000000e+00   0.000000000000e+00   0.000000000000e+00   0.000000000000e+00   0.000000000000e+00   0.000000000000e+00   0.000000000000e+00   0.000000000000e+00   0.000000000000e+00 
  0.000000000000e+00   0.000000000000e+00   0.000000000000e+00   0.000000000000e+00   0.000000000000e+00   0.000000000000e+00   0.000000000000e+00   0.000000000000e+00   0.000000000000e+00 
  0.000000000000e+00   0.000000000000e+00   0.000000000000e+00   0.000000000000e+00   0.000000000000e+00   0.000000000000e+00   0.000000000000e+00   0.000000000000e+00   0.000000000000e+00 
  0.000000000000e+00   0.000000000000e+00   0.000000000000e+00   0.000000000000e+00   0.000000000000e+00   0.000000000000e+00   0.000000000000e+00   0.000000000000e+00   0.000000000000e+00 
  0.000000000000e+00   0.000000000000e+00   0.000000000000e+00   0.000000000000e+00   0.000000000000e+00   0.000000000000e+00   0.000000000000e+00   0.000000000000e+00   0.000000000000e+00 
  0.000000000000e+00   0.000000000000e+00   0.000000000000e+00   0.000000000000e+00   0.000000000000e+00   0.000000000000e+00   0.000000000000e+00   0.000000000000e+00   0.000000000000e+00 
  0.000000000000e+00   0.000000000000e+00   0.000000000000e+00   0.000000000000e+00   0.000000000000e+00   0.000000000000e+00   0.000000000000e+00   0.000000000000e+00   0.000000000000e+00 
  0.000000000000e+00   0.000000000000e+00   0.000000000000e+00   0.000000000000e+00   0.000000000000e+00   0.000000000000e+00   0.000000000000e+00   0.000000000000e+00   0.000000000000e+00 
  0.000000000000e+00   0.000000000000e+00   0.000000000000e+00   0.000000000000e+00   0.000000000000e+00   0.000000000000e+00   0.000000000000e+00   0.000000000000e+00   0.000000000000e+00 
  0.000000000000e+00   0.000000000000e+00   0.000000000000e+00   0.000000000000e+00   0.000000000000e+00   0.000000000000e+00   0.000000000000e+00   0.000000000000e+00   0.000000000000e+00 
  0.000000000000e+00   0.000000000000e+00   0.000000000000e+00   0.000000000000e+00   0.000000000000e+00   0.000000000000e+00   0.000000000000e+00   0.000000000000e+00   0.000000000000e+00 
  0.000000000000e+00   0.000000000000e+00   0.000000000000e+00   0.000000000000e+00   0.000000000000e+00   0.000000000000e+00   0.000000000000e+00   0.000000000000e+00   0.000000000000e+00 
  0.000000000000e+00   0.000000000000e+00   0.000000000000e+00   0.000000000000e+00   0.000000000000e+00   0.000000000000e+00   0.000000000000e+00   0.000000000000e+00   0.000000000000e+00 
  0.000000000000e+00   0.000000000000e+00   0.000000000000e+00   0.000000000000e+00   0.000000000000e+00   0.000000000000e+00   0.000000000000e+00   0.000000000000e+00   0.000000000000e+00 
  0.000000000000e+00   0.000000000000e+00   0.000000000000e+00   0.000000000000e+00   0.000000000000e+00   0.000000000000e+00   0.000000000000e+00   0.000000000000e+00   0.000000000000e+00 
  0.000000000000e+00   0.000000000000e+00   0.000000000000e+00   0.000000000000e+00   0.000000000000e+00   0.000000000000e+00   0.000000000000e+00   0.000000000000e+00   0.000000000000e+00 
  0.000000000000e+00   0.000000000000e+00   0.000000000000e+00   0.000000000000e+00   0.000000000000e+00   0.000000000000e+00   0.000000000000e+00   0.000000000000e+00   0.000000000000e+00 
  0.000000000000e+00   0.000000000000e+00   0.000000000000e+00   0.000000000000e+00   0.000000000000e+00   0.000000000000e+00   0.000000000000e+00   0.000000000000e+00   0.000000000000e+00 
  0.000000000000e+00   0.000000000000e+00   0.000000000000e+00   0.000000000000e+00   0.000000000000e+00   0.000000000000e+00   0.000000000000e+00   0.000000000000e+00   0.000000000000e+00 
  0.000000000000e+00   0.000000000000e+00   0.000000000000e+00   0.000000000000e+00   0.000000000000e+00   0.000000000000e+00   0.000000000000e+00   0.000000000000e+00   0.000000000000e+00 
  0.000000000000e+00   0.000000000000e+00   0.000000000000e+00   0.000000000000e+00   0.000000000000e+00   0.000000000000e+00   0.000000000000e+00   0.000000000000e+00   0.000000000000e+00 
  0.000000000000e+00   0.000000000000e+00   0.000000000000e+00   0.000000000000e+00   0.000000000000e+00   0.000000000000e+00   0.000000000000e+00   0.000000000000e+00   0.000000000000e+00 
  0.000000000000e+00   0.000000000000e+00   0.000000000000e+00   0.000000000000e+00   0.000000000000e+00   0.000000000000e+00   0.000000000000e+00   0.000000000000e+00   0.000000000000e+00 
  0.000000000000e+00   0.000000000000e+00   0.000000000000e+00   0.000000000000e+00   0.000000000000e+00   0.000000000000e+00   0.000000000000e+00   0.000000000000e+00   0.000000000000e+00 
  0.000000000000e+00   0.000000000000e+00   0.000000000000e+00   0.000000000000e+00   0.000000000000e+00   0.000000000000e+00   0.000000000000e+00   0.000000000000e+00   0.000000000000e+00 
  0.000000000000e+00   0.000000000000e+00   0.000000000000e+00   0.000000000000e+00   0.000000000000e+00   0.000000000000e+00   0.000000000000e+00   0.000000000000e+00   0.000000000000e+00 
  0.000000000000e+00   0.000000000000e+00   0.000000000000e+00   0.000000000000e+00   0.000000000000e+00   0.000000000000e+00   0.000000000000e+00   0.000000000000e+00   0.000000000000e+00 
  0.000000000000e+00   0.000000000000e+00   0.000000000000e+00   0.000000000000e+00   0.000000000000e+00   0.000000000000e+00   0.000000000000e+00   0.000000000000e+00   0.000000000000e+00 
  0.000000000000e+00   0.000000000000e+00   0.000000000000e+00   0.000000000000e+00   0.000000000000e+00   0.000000000000e+00   0.000000000000e+00   0.000000000000e+00   0.000000000000e+00 
  0.000000000000e+00   0.000000000000e+00   0.000000000000e+00   0.000000000000e+00   0.000000000000e+00   0.000000000000e+00   0.000000000000e+00   0.000000000000e+00   0.000000000000e+00 
  0.000000000000e+00   0.000000000000e+00   0.000000000000e+00   0.000000000000e+00   0.000000000000e+00   0.000000000000e+00   0.000000000000e+00   0.000000000000e+00   0.000000000000e+00 
  0.000000000000e+00   0.000000000000e+00   0.000000000000e+00   0.000000000000e+00   0.000000000000e+00   0.000000000000e+00   0.000000000000e+00   0.000000000000e+00   0.000000000000e+00 
  0.000000000000e+00   0.000000000000e+00   0.000000000000e+00   0.000000000000e+00   0.000000000000e+00   0.000000000000e+00   0.000000000000e+00   0.000000000000e+00   0.000000000000e+00 
  0.000000000000e+00   0.000000000000e+00   0.000000000000e+00   0.000000000000e+00   0.000000000000e+00   0.000000000000e+00   0.000000000000e+00   0.000000000000e+00   0.000000000000e+00 
  0.000000000000e+00   0.000000000000e+00   0.000000000000e+00   0.000000000000e+00   0.000000000000e+00   0.000000000000e+00   0.000000000000e+00   0.000000000000e+00   0.000000000000e+00 
  0.000000000000e+00   0.000000000000e+00   0.000000000000e+00   0.000000000000e+00   0.000000000000e+00   0.000000000000e+00   0.000000000000e+00   0.000000000000e+00   0.000000000000e+00 
  0.000000000000e+00   0.000000000000e+00   0.000000000000e+00   0.000000000000e+00   0.000000000000e+00   0.000000000000e+00   0.000000000000e+00   0.000000000000e+00   0.000000000000e+00 
  0.000000000000e+00   0.000000000000e+00   0.000000000000e+00   0.000000000000e+00   0.000000000000e+00   0.000000000000e+00   0.000000000000e+00   0.000000000000e+00   0.000000000000e+00 
  0.000000000000e+00   0.000000000000e+00   0.000000000000e+00   0.000000000000e+00   0.000000000000e+00   0.000000000000e+00   0.000000000000e+00   0.000000000000e+00   0.000000000000e+00 
  0.000000000000e+00   0.000000000000e+00   0.000000000000e+00   0.000000000000e+00   0.000000000000e+00   0.000000000000e+00   0.000000000000e+00   0.000000000000e+00   0.000000000000e+00 
  0.000000000000e+00   0.000000000000e+00   0.000000000000e+00   0.000000000000e+00   0.000000000000e+00   0.000000000000e+00   0.000000000000e+00   0.000000000000e+00   0.000000000000e+00 
  0.000000000000e+00   0.000000000000e+00   0.000000000000e+00   0.000000000000e+00   0.000000000000e+00   0.000000000000e+00   0.000000000000e+00   0.000000000000e+00   0.000000000000e+00 
  0.000000000000e+00   0.000000000000e+00   0.000000000000e+00   0.000000000000e+00   0.000000000000e+00   0.000000000000e+00   0.000000000000e+00   0.000000000000e+00   0.000000000000e+00 
  0.000000000000e+00   0.000000000000e+00   0.000000000000e+00   0.000000000000e+00   0.000000000000e+00   0.000000000000e+00   0.000000000000e+00   3.076380968094e+00   2.714043378830e+00 
  2.129157304764e+00   2.824528217316e+00   3.330257654190e+00   3.534409046173e+00   3.532323598862e+00   3.456487417221e+00   3.479064702988e+00   3.361920118332e+00   2.991746902466e+00 
  2.416693687439e+00   3.348691225052e+00   4.109509468079e+00   4.608277797699e+00   4.927793502808e+00   5.094891548157e+00   5.212656974792e+00   0.000000000000e+00   0.000000000000e+00 
  3.112954854965e+00   2.431924343109e+00   5.492104530334e+00   2.599159955978e+00   3.410382747650e+00   3.618460893631e+00   3.520298004150e+00   3.329755067825e+00   3.483324050903e+00 
  3.392081260681e+00   2.703407764435e+00   6.035009384155e+00   3.097247838974e+00   4.204457283020e+00   4.736028671265e+00   5.040052890778e+00   5.203931331635e+00   5.316000461578e+00 
  0.000000000000e+00   0.000000000000e+00   3.434386014938e+00   3.157087802887e+00   2.684649705887e+00   3.307212829590e+00   3.765696287155e+00   3.877567529678e+00   3.631938219070e+00 
  3.164712190628e+00   3.739710092545e+00   3.817675590515e+00   3.596101045609e+00   3.169762611389e+00   3.972869873047e+00   4.580312252045e+00   5.007124900818e+00   5.235162258148e+00 
  5.377846240997e+00   5.488433837891e+00   0.000000000000e+00   0.000000000000e+00   3.622268676758e+00   3.507014274597e+00   3.396380662918e+00   3.760403871536e+00   4.060008049011e+00 
  4.162861824036e+00   4.056490898132e+00   3.882257461548e+00   4.104856967926e+00   4.295040130615e+00   4.400699615479e+00   4.458890438080e+00   4.764147281647e+00   5.040343284607e+00 
  5.213284015656e+00   5.375482559204e+00   5.437624454498e+00   5.507688045502e+00   0.000000000000e+00   0.000000000000e+00   3.865020036697e+00   3.747722864151e+00   3.582473993301e+00 
  4.072002410889e+00   4.388822555542e+00   4.579712867737e+00   4.606283187866e+00   4.587976455688e+00   4.645278453827e+00   4.768123626709e+00   4.837627887726e+00   4.932954311371e+00 
  5.117513656616e+00   5.330013751984e+00   5.526240825653e+00   5.626672744751e+00   5.644936561584e+00   5.732993602753e+00   0.000000000000e+00   0.000000000000e+00   4.308467388153e+00 
  4.032283306122e+00   3.499790191650e+00   4.199446678162e+00   4.743219852448e+00   5.034451961517e+00   5.141337871552e+00   5.199103355408e+00   5.289294242859e+00   5.334474086761e+00 
  5.372869491577e+00   5.460064888000e+00   5.570341110229e+00   5.672978878021e+00   5.748955249786e+00   5.813436031342e+00   5.828041076660e+00   5.971355438232e+00   0.000000000000e+00 
  0.000000000000e+00   4.732650279999e+00   4.609152793884e+00   4.475953102112e+00   4.828722476959e+00   5.195631504059e+00   5.349337100983e+00   5.480876922607e+00   5.511903762817e+00 
  5.618212699890e+00   5.713565826416e+00   5.813370227814e+00   5.936487674713e+00   6.078847408295e+00   6.196078777313e+00   6.268405437469e+00   6.284589290619e+00   6.228640079498e+00 
  6.337997913361e+00   0.000000000000e+00   0.000000000000e+00   5.332866668701e+00   5.307800769806e+00   5.326635837555e+00   5.540287017822e+00   5.815798282623e+00   5.929517745972e+00 
  5.978235244751e+00   6.023413181305e+00   6.064605236053e+00   6.091960906982e+00   6.143382549286e+00   6.295707225800e+00   6.505290508270e+00   6.685707092285e+00   6.681698799133e+00 
  6.570234298706e+00   6.539740562439e+00   6.856301784515e+00   0.000000000000e+00   0.000000000000e+00   5.930566310883e+00   6.012898921967e+00   6.083982944489e+00   6.212619304657e+00 
  6.312737941742e+00   6.310854434967e+00   6.344079017639e+00   6.366970539093e+00   6.356088161469e+00   6.319413661957e+00   6.362956047058e+00   6.497293472290e+00   6.775984764099e+00 
  7.089735984802e+00   7.101251125336e+00   7.007625579834e+00   6.953476905823e+00   7.468703746796e+00   0.000000000000e+00   0.000000000000e+00   6.694071769714e+00   6.746068954468e+00 
  6.928950786591e+00   6.926817417145e+00   6.971440315247e+00   7.094500064850e+00   6.928696632385e+00   6.798393726349e+00   6.711144447327e+00   6.696319103241e+00   6.668646812439e+00 
  6.762342453003e+00   7.142365455627e+00   7.962306022644e+00   8.158910751343e+00   7.589617252350e+00   7.084545612335e+00   7.193254947662e+00   0.000000000000e+00   0.000000000000e+00 
  7.624937534332e+00   7.756447315216e+00   8.021150588989e+00   8.043119430542e+00   8.042248725891e+00   7.953709125519e+00   7.568864822388e+00   7.344095706940e+00   7.125073909760e+00 
  6.916235923767e+00   6.739445686340e+00   6.699990749359e+00   7.181971549988e+00   8.684495925903e+00   9.101593971252e+00   8.014776229858e+00   7.430399417877e+00   7.354374408722e+00 
  0.000000000000e+00   0.000000000000e+00   8.668099403381e+00   8.884173393250e+00   9.094886779785e+00   9.135950088501e+00   8.871987342834e+00   8.577922821045e+00   8.141014099121e+00 
  7.768608093262e+00   7.526805877686e+00   7.227630138397e+00   7.017200946808e+00   6.917776107788e+00   6.802078247070e+00   6.857862472534e+00   6.997865676880e+00   7.187739849091e+00 
  7.441040515900e+00   7.610544681549e+00   0.000000000000e+00   0.000000000000e+00   9.803841590881e+00   1.011518859863e+01   1.066488361359e+01   1.110950946808e+01   1.066262435913e+01 
  9.711910247803e+00   8.997349739075e+00   8.539435386658e+00   8.031793594360e+00   7.898816108704e+00   7.744122982025e+00   7.870019912720e+00   7.482769966125e+00   5.738304615021e+00 
  5.636778831482e+00   6.975737094879e+00   7.789415359497e+00   7.816276550293e+00   0.000000000000e+00   0.000000000000e+00   1.081894016266e+01   1.114281940460e+01   1.224029254913e+01 
  1.323749637604e+01   1.234931373596e+01   1.055447196960e+01   9.403288841248e+00   8.893419265747e+00   8.211164474487e+00   8.281807899475e+00   8.430015563965e+00   8.884556770325e+00 
  7.943302631378e+00   4.552739620209e+00   4.347069740295e+00   6.600119113922e+00   8.424675941467e+00   8.182340621948e+00   0.000000000000e+00   0.000000000000e+00   1.164677810669e+01 
  1.234308624268e+01   1.513010978699e+01   1.660327720642e+01   1.422837066650e+01   1.151673316956e+01   9.905145645142e+00   8.914857864380e+00   8.419370651245e+00   8.280779838562e+00 
  8.255433082581e+00   5.954923629761e+00   5.209416389465e+00   4.548620223999e+00   5.308932781219e+00   7.691884994507e+00   9.546382904053e+00   9.289276123047e+00   0.000000000000e+00 
  0.000000000000e+00   1.171287441254e+01   1.213306427002e+01   1.302338218689e+01   1.382225131989e+01   1.265134811401e+01   1.113147544861e+01   9.982273101807e+00   9.002388954163e+00 
  8.098459243774e+00   6.969384193420e+00   5.401523590088e+00   5.124754905701e+00   5.250640869141e+00   5.561311721802e+00   6.315907478333e+00   7.553410530090e+00   8.587312698364e+00 
  8.355564117432e+00   0.000000000000e+00   0.000000000000e+00   1.209904193878e+01   1.232499504089e+01   1.290519142151e+01   1.308914947510e+01   1.234695243835e+01   1.120137691498e+01 
  1.011958122253e+01   9.089545249939e+00   8.197522163391e+00   7.314017772675e+00   6.337237834930e+00   6.139337539673e+00   6.264461994171e+00   6.502735614777e+00   6.942531585693e+00 
  7.566617488861e+00   8.133644104004e+00   8.182845115662e+00   0.000000000000e+00   0.000000000000e+00   1.190059185028e+01   1.187432098389e+01   1.188750648499e+01   1.172931575775e+01 
  1.118503761292e+01   1.040171813965e+01   9.494069099426e+00   8.683668136597e+00   7.777722835541e+00   6.855135440826e+00   6.156659603119e+00   5.715259552002e+00   5.680364608765e+00 
  5.982562541962e+00   6.499670028687e+00   7.052653789520e+00   7.415935993195e+00   7.661106109619e+00   0.000000000000e+00   0.000000000000e+00   0.000000000000e+00   0.000000000000e+00 
  0.000000000000e+00   0.000000000000e+00   0.000000000000e+00   0.000000000000e+00   0.000000000000e+00   0.000000000000e+00   0.000000000000e+00   0.000000000000e+00   0.000000000000e+00 
  0.000000000000e+00   0.000000000000e+00   0.000000000000e+00   0.000000000000e+00   0.000000000000e+00   0.000000000000e+00   0.000000000000e+00   0.000000000000e+00   0.000000000000e+00 
  0.000000000000e+00   0.000000000000e+00   0.000000000000e+00   0.000000000000e+00   0.000000000000e+00   0.000000000000e+00   0.000000000000e+00   0.000000000000e+00   0.000000000000e+00 
  0.000000000000e+00   0.000000000000e+00   0.000000000000e+00   0.000000000000e+00   0.000000000000e+00   0.000000000000e+00   0.000000000000e+00   0.000000000000e+00   0.000000000000e+00 
  0.000000000000e+00   0.000000000000e+00   2.420233249664e+00   2.206651210785e+00   1.989485383034e+00   2.269899606705e+00   2.551412582397e+00   2.690605878830e+00   2.622939348221e+00 
  2.482203483582e+00   2.608122587204e+00   2.604443788528e+00   2.464277505875e+00   2.341434240341e+00   2.788735151291e+00   3.279070854187e+00   3.645209074020e+00   3.922599077225e+00 
  4.073782444000e+00   4.200996875763e+00   0.000000000000e+00   0.000000000000e+00   2.439050436020e+00   2.164803504944e+00   1.734960198402e+00   2.274767398834e+00   2.614877223969e+00 
  2.706098079681e+00   2.507623910904e+00   2.107854604721e+00   2.602901935577e+00   2.646012067795e+00   2.452732801437e+00   2.072238445282e+00   2.801751852036e+00   3.367774248123e+00 
  3.752413988113e+00   4.007449150085e+00   4.148179531097e+00   4.268031120300e+00   0.000000000000e+00   0.000000000000e+00   2.659276485443e+00   2.519393205643e+00   2.380722284317e+00 
  2.672705650330e+00   2.937185764313e+00   2.991379976273e+00   2.397630453110e+00   6.679116249084e+00   2.786420822144e+00   2.999665021896e+00   2.955253839493e+00   2.916857481003e+00 
  3.310806035995e+00   3.697318077087e+00   3.998316049576e+00   4.195996284485e+00   4.311069965363e+00   4.435005664825e+00   0.000000000000e+00   0.000000000000e+00   2.772902250290e+00 
  2.683236598969e+00   2.609964132309e+00   2.898078441620e+00   3.225481271744e+00   3.396704912186e+00   3.112427234650e+00   2.644980669022e+00   3.129573583603e+00   3.372043371201e+00 
  3.495583295822e+00   3.588507413864e+00   3.811412096024e+00   4.044202804565e+00   4.204576969147e+00   4.347681045532e+00   4.388289928436e+00   4.468286991119e+00   0.000000000000e+00 
  0.000000000000e+00   2.884138345718e+00   2.673190593719e+00   2.267925977707e+00   2.953653097153e+00   3.444959640503e+00   3.807904720306e+00   3.684756994247e+00   3.538841009140e+00 
  3.690931797028e+00   3.836188077927e+00   3.891574859619e+00   4.002787113190e+00   4.163108348846e+00   4.344012737274e+00   4.500824451447e+00   4.582769870758e+00   4.596907138824e+00 
  4.793713092804e+00   0.000000000000e+00   0.000000000000e+00   3.249788522720e+00   2.657178401947e+00   5.009658813477e+00   2.900327444077e+00   3.759569168091e+00   3.935821771622e+00 
  3.990098237991e+00   4.144129753113e+00   4.211555957794e+00   4.256196498871e+00   4.320424079895e+00   4.411267757416e+00   4.518812656403e+00   4.633521556854e+00   4.718614578247e+00 
  4.760865688324e+00   4.778408050537e+00   5.102746963501e+00   0.000000000000e+00   0.000000000000e+00   3.789527416229e+00   3.554603338242e+00   3.289357185364e+00   3.802122831345e+00 
  4.253695487976e+00   4.490492343903e+00   4.605361461639e+00   4.577299118042e+00   4.730494022369e+00   4.796489238739e+00   4.825723648071e+00   4.891214370728e+00   4.989198207855e+00 
  5.073361873627e+00   5.082014083862e+00   5.076829433441e+00   5.022060394287e+00   5.109531879425e+00   0.000000000000e+00   0.000000000000e+00   4.277147293091e+00   4.219902515411e+00 
  4.255983352661e+00   4.474549770355e+00   5.022308826447e+00   5.091098308563e+00   4.922194957733e+00   4.961807250977e+00   5.051013946533e+00   5.042395114899e+00   5.084703445435e+00 
  5.306588649750e+00   5.529303073883e+00   5.642762660980e+00   5.656540870667e+00   5.560811042786e+00   5.409066200256e+00   5.551707744598e+00   0.000000000000e+00   0.000000000000e+00 
  4.638370990753e+00   4.830648422241e+00   4.935741424561e+00   5.038987159729e+00   5.262238025665e+00   5.277017116547e+00   5.318537712097e+00   5.329320907593e+00   5.349113941193e+00 
  5.292292594910e+00   5.294022560120e+00   5.422595500946e+00   5.813652515411e+00   5.964510917664e+00   6.079911708832e+00   5.888026714325e+00   5.687039375305e+00   5.829931735992e+00 
  0.000000000000e+00   0.000000000000e+00   5.295564651489e+00   5.530431270599e+00   5.792154312134e+00   5.905043601990e+00   5.841996669769e+00   5.899508953094e+00   5.850508213043e+00 
  5.763912200928e+00   5.656681060791e+00   5.573376178741e+00   5.519087314606e+00   5.669695854187e+00   6.339121818542e+00   6.726486206055e+00   6.947888851166e+00   6.386896133423e+00 
  5.994209766388e+00   5.976091861725e+00   0.000000000000e+00   0.000000000000e+00   6.173220157623e+00   6.485688686371e+00   6.728642940521e+00   6.823985576630e+00   6.758704185486e+00 
  6.592915534973e+00   6.393550395966e+00   6.250322818756e+00   6.049362182617e+00   5.836761951447e+00   5.672170639038e+00   5.470223426819e+00   5.953506946564e+00   7.274978637695e+00 
  7.784162521362e+00   7.003650188446e+00   6.537476539612e+00   6.398866653442e+00   0.000000000000e+00   0.000000000000e+00   7.445269107819e+00   7.708515167236e+00   8.005182266235e+00 
  8.117156028748e+00   7.900033950806e+00   7.551901817322e+00   7.175377845764e+00   6.798808097839e+00   6.487196922302e+00   6.206949710846e+00   5.930209636688e+00   5.748560428619e+00 
  5.767166614532e+00   6.100369930267e+00   6.468389987946e+00   6.535739898682e+00   6.592672348022e+00   6.501239299774e+00   0.000000000000e+00   0.000000000000e+00   8.603897094727e+00 
  8.956454277039e+00   9.535987854004e+00   9.977340698242e+00   9.432674407959e+00   8.580548286438e+00   7.842147827148e+00   7.340366840363e+00   6.929142951965e+00   6.693315982819e+00 
  6.416437625885e+00   5.905612945557e+00   5.692563533783e+00   5.379803180695e+00   5.603214263916e+00   6.296341896057e+00   6.876528739929e+00   6.653417110443e+00   0.000000000000e+00 
  0.000000000000e+00   9.619400978088e+00   1.016843986511e+01   1.233472442627e+01   1.363241100311e+01   1.168745613098e+01   9.748033523560e+00   8.536713600159e+00   7.821102619171e+00 
  7.369487762451e+00   7.255633831024e+00   7.370113372803e+00   5.506982326508e+00   5.164758682251e+00   4.460095882416e+00   4.792806625366e+00   6.687025547028e+00   8.006013870239e+00 
  7.378801345825e+00   0.000000000000e+00   0.000000000000e+00   1.045890998840e+01   1.178874492645e+01   1.639301109314e+01   1.886228179932e+01   1.488225555420e+01   1.119612789154e+01 
  9.508499145508e+00   8.564059257507e+00   8.082944869995e+00   7.862389087677e+00   7.731937885284e+00   5.261289119720e+00   4.484863281250e+00   3.829643011093e+00   5.323920726776e+00 
  7.423320770264e+00   9.782441139221e+00   9.000028610229e+00   0.000000000000e+00   0.000000000000e+00   1.051880836487e+01   1.092518424988e+01   1.257925224304e+01   1.381620883942e+01 
  1.199337959290e+01   1.011866855621e+01   8.911641120911e+00   7.949768543243e+00   7.049832344055e+00   5.440000057220e+00   5.192892074585e+00   2.719997882843e+00   3.475143909454e+00 
  4.642081260681e+00   5.605300426483e+00   6.793279647827e+00   8.059092521667e+00   7.545166969299e+00   0.000000000000e+00   0.000000000000e+00   1.079985237122e+01   1.106204128265e+01 
  1.178699398041e+01   1.203982925415e+01   1.121284294128e+01   1.007584762573e+01   9.025388717651e+00   8.113753318787e+00   7.207121372223e+00   6.212483406067e+00   4.816178321838e+00 
  4.884032249451e+00   5.102187633514e+00   5.517621040344e+00   6.001965045929e+00   6.577594757080e+00   7.113224029541e+00   7.156260967255e+00   0.000000000000e+00   0.000000000000e+00 
  1.047528648376e+01   1.058538532257e+01   1.066586399078e+01   1.050918865204e+01   9.942564010620e+00   9.147664070129e+00   8.329459190369e+00   7.501746177673e+00   6.671914577484e+00 
  5.803354263306e+00   5.002108097076e+00   4.726715087891e+00   4.794042587280e+00   5.089939117432e+00   5.575010776520e+00   6.067090034485e+00   6.372752189636e+00   6.537141799927e+00 
  0.000000000000e+00   0.000000000000e+00   0.000000000000e+00   0.000000000000e+00   0.000000000000e+00   0.000000000000e+00   0.000000000000e+00   0.000000000000e+00   0.000000000000e+00 
  0.000000000000e+00   0.000000000000e+00   0.000000000000e+00   0.000000000000e+00   0.000000000000e+00   0.000000000000e+00   0.000000000000e+00   0.000000000000e+00   0.000000000000e+00 
  0.000000000000e+00   0.000000000000e+00   0.000000000000e+00   0.000000000000e+00   0.000000000000e+00   0.000000000000e+00   0.000000000000e+00   0.000000000000e+00   0.000000000000e+00 
  0.000000000000e+00   0.000000000000e+00   0.000000000000e+00   0.000000000000e+00   0.000000000000e+00   0.000000000000e+00   0.000000000000e+00   0.000000000000e+00   0.000000000000e+00 
  0.000000000000e+00   0.000000000000e+00   0.000000000000e+00   0.000000000000e+00   0.000000000000e+00   0.000000000000e+00   1.786772847176e+00   1.638716697693e+00   1.590537905693e+00 
  1.673960804939e+00   1.810339570045e+00   1.889877319336e+00   1.856458902359e+00   1.847050189972e+00   1.886171221733e+00   1.888116478920e+00   1.850224375725e+00   1.837551474571e+00 
  2.056594848633e+00   2.344683885574e+00   2.588212966919e+00   2.835391759872e+00   2.947483778000e+00   3.095869302750e+00   0.000000000000e+00   0.000000000000e+00   1.731728076935e+00 
  1.618678927422e+00   1.591508030891e+00   1.759703278542e+00   1.935301542282e+00   1.999439239502e+00   1.944413304329e+00   1.829269886017e+00   1.976973414421e+00   1.947581291199e+00 
  1.944908261299e+00   1.932348251343e+00   2.167764663696e+00   2.461714267731e+00   2.708246707916e+00   2.863626003265e+00   2.957661151886e+00   3.079057931900e+00   0.000000000000e+00 
  0.000000000000e+00   1.873804330826e+00   1.847843289375e+00   1.842817425728e+00   2.012467145920e+00   2.209412574768e+00   2.295634031296e+00   1.950779199600e+00   1.563222289085e+00 
  2.098592758179e+00   2.191044569016e+00   2.201470851898e+00   2.293654680252e+00   2.505836248398e+00   2.710477352142e+00   2.916711330414e+00   3.066911458969e+00   3.130355596542e+00 
  3.239387035370e+00   0.000000000000e+00   0.000000000000e+00   2.052500963211e+00   2.001896619797e+00   2.036558151245e+00   2.316301822662e+00   2.629931688309e+00   3.004249095917e+00 
  2.570253372192e+00   2.143907070160e+00   2.276756286621e+00   2.518657684326e+00   2.625519037247e+00   2.796490430832e+00   2.958389520645e+00   3.097136259079e+00   3.252696514130e+00 
  3.361890554428e+00   3.342397689819e+00   3.436606407166e+00   0.000000000000e+00   0.000000000000e+00   2.175538778305e+00   2.130722999573e+00   2.032701492310e+00   2.473208904266e+00 
  3.031130790710e+00   3.689077377319e+00   3.104372978210e+00   2.799976110458e+00   2.950686931610e+00   2.995171308517e+00   3.047874212265e+00   3.167766809464e+00   3.283308029175e+00 
  3.389928102493e+00   3.514721393585e+00   3.571301460266e+00   3.546342611313e+00   3.650933980942e+00   0.000000000000e+00   0.000000000000e+00   2.780515670776e+00   2.353297472000e+00 
  1.788410782814e+00   2.503974676132e+00   2.949828624725e+00   3.007419109344e+00   3.004829406738e+00   3.100635290146e+00   3.137711048126e+00   3.259910821915e+00   3.303180932999e+00 
  3.449979543686e+00   3.590114355087e+00   3.699037313461e+00   3.753974199295e+00   3.778625488281e+00   3.748763084412e+00   3.857075691223e+00   0.000000000000e+00   0.000000000000e+00 