# vtk DataFile Version 2.0
Written using VisIt writer
ASCII
DATASET RECTILINEAR_GRID
DIMENSIONS 20 20 20
X_COORDINATES 20 float
  0.000000000000e+00   1.000000000000e+00   2.000000000000e+00   3.000000000000e+00   4.000000000000e+00   5.000000000000e+00   6.000000000000e+00   7.000000000000e+00   8.000000000000e+00 
  9.000000000000e+00   1.000000000000e+01   1.100000000000e+01   1.200000000000e+01   1.300000000000e+01   1.400000000000e+01   1.500000000000e+01   1.600000000000e+01   1.700000000000e+01 
  1.800000000000e+01   1.900000000000e+01 
Y_COORDINATES 20 float
  0.000000000000e+00   1.000000000000e+00   2.000000000000e+00   3.000000000000e+00   4.000000000000e+00   5.000000000000e+00   6.000000000000e+00   7.000000000000e+00   8.000000000000e+00 
  9.000000000000e+00   1.000000000000e+01   1.100000000000e+01   1.200000000000e+01   1.300000000000e+01   1.400000000000e+01   1.500000000000e+01   1.600000000000e+01   1.700000000000e+01 
  1.800000000000e+01   1.900000000000e+01 
Z_COORDINATES 20 float
  0.000000000000e+00   1.000000000000e+00   2.000000000000e+00   3.000000000000e+00   4.000000000000e+00   5.000000000000e+00   6.000000000000e+00   7.000000000000e+00   8.000000000000e+00 
  9.000000000000e+00   1.000000000000e+01   1.100000000000e+01   1.200000000000e+01   1.300000000000e+01   1.400000000000e+01   1.500000000000e+01   1.600000000000e+01   1.700000000000e+01 
  1.800000000000e+01   1.900000000000e+01 
CELL_DATA 6859
POINT_DATA 8000
SCALARS pressure float
LOOKUP_TABLE default
  0.000000000000e+00   0.000000000000e+00   0.000000000000e+00   0.000000000000e+00   0.000000000000e+00   0.000000000000e+00   0.000000000000e+00   0.000000000000e+00   0.000000000000e+00 
  0.000000000000e+00   0.000000000000e+00   0.000000000000e+00   0.000000000000e+00   0.000000000000e+00   0.000000000000e+00   0.000000000000e+00   0.000000000000e+00   0.000000000000e+00 
  0.000000000000e+00   0.000000000000e+00   0.000000000000e+00   0.000000000000e+00   0.000000000000e+00   0.000000000000e+00   0.000000000000e+00   0.000000000000e+00   0.000000000000e+00 
  0.000000000000e+00   0.000000000000e+00   0.000000000000e+00   0.000000000000e+00   0.000000000000e+00   0.000000000000e+00   0.000000000000e+00   0.000000000000e+00   0.000000000000e+00 
  0.000000000000e+00   0.000000000000e+00   0.000000000000e+00   0.000000000000e+00   0.000000000000e+00   0.000000000000e+00   0.000000000000e+00   0.000000000000e+00   0.000000000000e+00 
  0.000000000000e+00   0.000000000000e+00   0.000000000000e+00   0.000000000000e+00   0.000000000000e+00   0.000000000000e+00   0.000000000000e+00   0.000000000000e+00   0.000000000000e+00 
  0.000000000000e+00   0.000000000000e+00   0.000000000000e+00   0.000000000000e+00   0.000000000000e+00   0.000000000000e+00   0.000000000000e+00   0.000000000000e+00   0.000000000000e+00 
  0.000000000000e+00   0.000000000000e+00   0.000000000000e+00   0.000000000000e+00   0.000000000000e+00   0.000000000000e+00   0.000000000000e+00   0.000000000000e+00   0.000000000000e+00 
  0.000000000000e+00   0.000000000000e+00   0.000000000000e+00   0.000000000000e+00   0.000000000000e+00   0.000000000000e+00   0.000000000000e+00   0.000000000000e+00   0.000000000000e+00 
  0.000000000000e+00   0.000000000000e+00   0.000000000000e+00   0.000000000000e+00   0.000000000000e+00   0.000000000000e+00   0.000000000000e+00   0.000000000000e+00   0.000000000000e+00 
  0.000000000000e+00   0.000000000000e+00   0.000000000000e+00   0.000000000000e+00   0.000000000000e+00   0.000000000000e+00   0.000000000000e+00   0.000000000000e+00   0.000000000000e+00 
  0.000000000000e+00   0.000000000000e+00   0.000000000000e+00   0.000000000000e+00   0.000000000000e+00   0.000000000000e+00   0.000000000000e+00   0.000000000000e+00   0.000000000000e+00 
  0.000000000000e+00   0.000000000000e+00   0.000000000000e+00   0.000000000000e+00   0.000000000000e+00   0.000000000000e+00   0.000000000000e+00   0.000000000000e+00   0.000000000000e+00 
  0.000000000000e+00   0.000000000000e+00   0.000000000000e+00   0.000000000000e+00   0.000000000000e+00   0.000000000000e+00   0.000000000000e+00   0.000000000000e+00   0.000000000000e+00 
  0.000000000000e+00   0.000000000000e+00   0.000000000000e+00   0.000000000000e+00   0.000000000000e+00   0.000000000000e+00   0.000000000000e+00   0.000000000000e+00   0.000000000000e+00 
  0.000000000000e+00   0.000000000000e+00   0.000000000000e+00   0.000000000000e+00   0.000000000000e+00   0.000000000000e+00   0.000000000000e+00   0.000000000000e+00   0.000000000000e+00 
  0.000000000000e+00   0.000000000000e+00   0.000000000000e+00   0.000000000000e+00   0.000000000000e+00   0.000000000000e+00   0.000000000000e+00   0.000000000000e+00   0.000000000000e+00 
  0.000000000000e+00   0.000000000000e+00   0.000000000000e+00   0.000000000000e+00   0.000000000000e+00   0.000000000000e+00   0.000000000000e+00   0.000000000000e+00   0.000000000000e+00 
  0.000000000000e+00   0.000000000000e+00   0.000000000000e+00   0.000000000000e+00   0.000000000000e+00   0.000000000000e+00   0.000000000000e+00   0.000000000000e+00   0.000000000000e+00 
  0.000000000000e+00   0.000000000000e+00   0.000000000000e+00   0.000000000000e+00   0.000000000000e+00   0.000000000000e+00   0.000000000000e+00   0.000000000000e+00   0.000000000000e+00 
  0.000000000000e+00   0.000000000000e+00   0.000000000000e+00   0.000000000000e+00   0.000000000000e+00   0.000000000000e+00   0.000000000000e+00   0.000000000000e+00   0.000000000000e+00 
  0.000000000000e+00   0.000000000000e+00   0.000000000000e+00   0.000000000000e+00   0.000000000000e+00   0.000000000000e+00   0.000000000000e+00   0.000000000000e+00   0.000000000000e+00 
  0.000000000000e+00   0.000000000000e+00   0.000000000000e+00   0.000000000000e+00   0.000000000000e+00   0.000000000000e+00   0.000000000000e+00   0.000000000000e+00   0.000000000000e+00 
  0.000000000000e+00   0.000000000000e+00   0.000000000000e+00   0.000000000000e+00   0.000000000000e+00   0.000000000000e+00   0.000000000000e+00   0.000000000000e+00   0.000000000000e+00 
  0.000000000000e+00   0.000000000000e+00   0.000000000000e+00   0.000000000000e+00   0.000000000000e+00   0.000000000000e+00   0.000000000000e+00   0.000000000000e+00   0.000000000000e+00 
  0.000000000000e+00   0.000000000000e+00   0.000000000000e+00   0.000000000000e+00   0.000000000000e+00   0.000000000000e+00   0.000000000000e+00   0.000000000000e+00   0.000000000000e+00 
  0.000000000000e+00   0.000000000000e+00   0.000000000000e+00   0.000000000000e+00   0.000000000000e+00   0.000000000000e+00   0.000000000000e+00   0.000000000000e+00   0.000000000000e+00 
  0.000000000000e+00   0.000000000000e+00   0.000000000000e+00   0.000000000000e+00   0.000000000000e+00   0.000000000000e+00   0.000000000000e+00   0.000000000000e+00   0.000000000000e+00 
  0.000000000000e+00   0.000000000000e+00   0.000000000000e+00   0.000000000000e+00   0.000000000000e+00   0.000000000000e+00   0.000000000000e+00   0.000000000000e+00   0.000000000000e+00 
  0.000000000000e+00   0.000000000000e+00   0.000000000000e+00   0.000000000000e+00   0.000000000000e+00   0.000000000000e+00   0.000000000000e+00   0.000000000000e+00   0.000000000000e+00 
  0.000000000000e+00   0.000000000000e+00   0.000000000000e+00   0.000000000000e+00   0.000000000000e+00   0.000000000000e+00   0.000000000000e+00   0.000000000000e+00   0.000000000000e+00 
  0.000000000000e+00   0.000000000000e+00   0.000000000000e+00   0.000000000000e+00   0.000000000000e+00   0.000000000000e+00   0.000000000000e+00   0.000000000000e+00   0.000000000000e+00 
  0.000000000000e+00   0.000000000000e+00   0.000000000000e+00   0.000000000000e+00   0.000000000000e+00   0.000000000000e+00   0.000000000000e+00   0.000000000000e+00   0.000000000000e+00 
  0.000000000000e+00   0.000000000000e+00   0.000000000000e+00   0.000000000000e+00   0.000000000000e+00   0.000000000000e+00   0.000000000000e+00   0.000000000000e+00   0.000000000000e+00 
  0.000000000000e+00   0.000000000000e+00   0.000000000000e+00   0.000000000000e+00   0.000000000000e+00   0.000000000000e+00   0.000000000000e+00   0.000000000000e+00   0.000000000000e+00 
  0.000000000000e+00   0.000000000000e+00   0.000000000000e+00   0.000000000000e+00   0.000000000000e+00   0.000000000000e+00   0.000000000000e+00   0.000000000000e+00   0.000000000000e+00 
  0.000000000000e+00   0.000000000000e+00   0.000000000000e+00   0.000000000000e+00   0.000000000000e+00   0.000000000000e+00   0.000000000000e+00   0.000000000000e+00   0.000000000000e+00 
  0.000000000000e+00   0.000000000000e+00   0.000000000000e+00   0.000000000000e+00   0.000000000000e+00   0.000000000000e+00   0.000000000000e+00   0.000000000000e+00   0.000000000000e+00 
  0.000000000000e+00   0.000000000000e+00   0.000000000000e+00   0.000000000000e+00   0.000000000000e+00   0.000000000000e+00   0.000000000000e+00   0.000000000000e+00   0.000000000000e+00 
  0.000000000000e+00   0.000000000000e+00   0.000000000000e+00   0.000000000000e+00   0.000000000000e+00   0.000000000000e+00   0.000000000000e+00   0.000000000000e+00   0.000000000000e+00 
  0.000000000000e+00   0.000000000000e+00   0.000000000000e+00   0.000000000000e+00   0.000000000000e+00   0.000000000000e+00   0.000000000000e+00   0.000000000000e+00   0.000000000000e+00 
  0.000000000000e+00   0.000000000000e+00   0.000000000000e+00   0.000000000000e+00   0.000000000000e+00   0.000000000000e+00   0.000000000000e+00   0.000000000000e+00   0.000000000000e+00 
  0.000000000000e+00   0.000000000000e+00   0.000000000000e+00   0.000000000000e+00   0.000000000000e+00   0.000000000000e+00   0.000000000000e+00   0.000000000000e+00   0.000000000000e+00 
  0.000000000000e+00   0.000000000000e+00   0.000000000000e+00   0.000000000000e+00   0.000000000000e+00   0.000000000000e+00   0.000000000000e+00   0.000000000000e+00   0.000000000000e+00 
  0.000000000000e+00   0.000000000000e+00   0.000000000000e+00   0.000000000000e+00   0.000000000000e+00   0.000000000000e+00   0.000000000000e+00   0.000000000000e+00   0.000000000000e+00 
  0.000000000000e+00   0.000000000000e+00   0.000000000000e+00   0.000000000000e+00   0.000000000000e+00   0.000000000000e+00   0.000000000000e+00   0.000000000000e+00   0.000000000000e+00 
  0.000000000000e+00   0.000000000000e+00   0.000000000000e+00   0.000000000000e+00   0.000000000000e+00   0.000000000000e+00   0.000000000000e+00   2.128903865814e+00   1.953713417053e+00 
  1.988373279572e+00   1.990170359612e+00   2.048861742020e+00   2.097255706787e+00   2.090523481369e+00   2.020443201065e+00   1.953162789345e+00   1.986863613129e+00   1.982545971870e+00 
  1.986945390701e+00   1.976689696312e+00   2.001296281815e+00   2.049851417542e+00   2.042382478714e+00   2.151105642319e+00   1.986080408096e+00   0.000000000000e+00   0.000000000000e+00 
  1.956274390221e+00   1.839301228523e+00   1.845647454262e+00   1.840646624565e+00   1.973168015480e+00   2.202282428741e+00   1.998496174812e+00   1.867703795433e+00   1.841838002205e+00 
  1.793415546417e+00   1.808181524277e+00   1.820498824120e+00   1.857447028160e+00   1.898722171783e+00   1.920619130135e+00   1.917551755905e+00   1.943929791451e+00   1.967023253441e+00 
  0.000000000000e+00   0.000000000000e+00   1.941370368004e+00   1.808776021004e+00   1.815899014473e+00   1.768044590950e+00   1.787658095360e+00   1.721766948700e+00   1.825254201889e+00 
  1.882973551750e+00   1.825675606728e+00   1.802837610245e+00   1.826374053955e+00   1.904684185982e+00   1.995643377304e+00   2.075442790985e+00   2.065181970596e+00   2.008370399475e+00 
  1.937571883202e+00   2.094635963440e+00   0.000000000000e+00   0.000000000000e+00   1.922200560570e+00   1.839225530624e+00   1.846183657646e+00   1.839268565178e+00   1.805774927139e+00 
  1.880678296089e+00   1.724623441696e+00   1.774298787117e+00   1.775277256966e+00   1.789401531219e+00   1.759817242622e+00   1.861826062202e+00   1.833131074905e+00   1.822650909424e+00 
  2.012151956558e+00   2.204558134079e+00   2.109663248062e+00   2.213107347488e+00   0.000000000000e+00   0.000000000000e+00   1.798252463341e+00   1.864412784576e+00   1.879974842072e+00 
  1.872918367386e+00   1.803362607956e+00   1.885362744331e+00   1.822645187378e+00   1.859611153603e+00   1.776982784271e+00   1.836923122406e+00   1.913532257080e+00   1.718355417252e+00 
  1.790369749069e+00   1.893746018410e+00   1.927549958229e+00   1.799491405487e+00   1.860816955566e+00   1.896646976471e+00   0.000000000000e+00   0.000000000000e+00   1.708622694016e+00 
  1.732783317566e+00   1.811099648476e+00   1.759995937347e+00   1.918793797493e+00   1.800532102585e+00   1.761471152306e+00   1.732911348343e+00   1.707225322723e+00   1.653810501099e+00 
  1.657842755318e+00   1.870493888855e+00   1.986992120743e+00   1.979594469070e+00   2.042917490005e+00   1.981258988380e+00   2.093341112137e+00   2.034878253937e+00   0.000000000000e+00 
  0.000000000000e+00   1.953564286232e+00   1.825479507446e+00   1.783990502357e+00   1.770163416862e+00   1.791407942772e+00   1.810185909271e+00   1.788339018822e+00   1.799409270287e+00 
  1.757684588432e+00   1.816327810287e+00   1.897930860519e+00   1.872951388359e+00   1.996019244194e+00   1.973147869110e+00   1.967894434929e+00   1.905730843544e+00   1.838418841362e+00 
  2.436501741409e+00   0.000000000000e+00   0.000000000000e+00   1.857859253883e+00   1.757286071777e+00   1.866074562073e+00   1.898578643799e+00   1.887923359871e+00   1.823850631714e+00 
  1.869264125824e+00   1.844884395599e+00   1.825534462929e+00   1.867257118225e+00   1.781384706497e+00   1.778800606728e+00   1.770408511162e+00   1.832081437111e+00   1.881267070770e+00 
  1.868331432343e+00   2.058342695236e+00   3.188268423080e+00   0.000000000000e+00   0.000000000000e+00   1.971835017204e+00   1.880939126015e+00   1.887436389923e+00   1.814689397812e+00 
  1.908334255219e+00   1.921504259109e+00   1.825651168823e+00   1.838074207306e+00   1.847288131714e+00   1.878573060036e+00   1.946852326393e+00   1.851306676865e+00   1.969126224518e+00 
  1.971206903458e+00   1.949630379677e+00   1.963292479515e+00   1.913175582886e+00   2.127642631531e+00   0.000000000000e+00   0.000000000000e+00   1.969280600548e+00   1.795936703682e+00 
  1.936871886253e+00   1.911698698997e+00   2.005684614182e+00   1.992150306702e+00   1.945101737976e+00   1.967110753059e+00   1.892110347748e+00   1.950033783913e+00   1.952201604843e+00 
  1.957922816277e+00   1.999902009964e+00   1.982749581337e+00   2.012482643127e+00   2.018816709518e+00   1.954493761063e+00   1.996568322182e+00   0.000000000000e+00   0.000000000000e+00 
  1.990984320641e+00   1.863562583923e+00   1.849440693855e+00   1.786632299423e+00   1.893914222717e+00   1.852605581284e+00   1.835653066635e+00   1.881429195404e+00   1.886574029922e+00 
  2.007143259048e+00   1.948728561401e+00   1.978953242302e+00   1.998107194901e+00   2.089982748032e+00   2.214057207108e+00   2.134737491608e+00   2.125955343246e+00   2.067042827606e+00 
  0.000000000000e+00   0.000000000000e+00   1.972802162170e+00   1.825513958931e+00   1.918666362762e+00   1.908432722092e+00   2.026072025299e+00   1.963007926941e+00   1.934599280357e+00 
  1.922999739647e+00   2.049916267395e+00   1.990752100945e+00   2.077328443527e+00   1.958173394203e+00   2.001082420349e+00   2.053693056107e+00   2.072701215744e+00   2.093669891357e+00 
  2.157536983490e+00   2.061478376389e+00   0.000000000000e+00   0.000000000000e+00   2.005250215530e+00   1.929152011871e+00   1.843326091766e+00   1.875724196434e+00   1.986624360085e+00 
  1.918369770050e+00   1.941553831100e+00   1.975366234779e+00   2.007791280746e+00   2.014899969101e+00   2.004696369171e+00   2.065357685089e+00   2.013920545578e+00   2.026566267014e+00 
  2.140770435333e+00   2.239610671997e+00   2.190167903900e+00   2.069169044495e+00   0.000000000000e+00   0.000000000000e+00   2.152357339859e+00   2.050855398178e+00   2.000403881073e+00 
  1.974764227867e+00   1.997056961060e+00   2.030015230179e+00   2.007348060608e+00   2.007966279984e+00   2.053781747818e+00   2.085499763489e+00   2.091433763504e+00   2.052859306335e+00 
  2.102894306183e+00   2.080165863037e+00   2.131205797195e+00   2.121182680130e+00   2.186987400055e+00   2.186198711395e+00   0.000000000000e+00   0.000000000000e+00   2.239322662354e+00 
  2.124742269516e+00   2.148140192032e+00   2.130141258240e+00   2.136929035187e+00   2.140230655670e+00   2.128278493881e+00   2.103546619415e+00   2.097715377808e+00   2.154881954193e+00 
  2.246409416199e+00   2.327571153641e+00   2.289419889450e+00   2.356993913651e+00   2.312549591064e+00   2.266299724579e+00   2.368852853775e+00   2.209905624390e+00   0.000000000000e+00 
  0.000000000000e+00   2.203018665314e+00   2.130221366882e+00   2.158447742462e+00   2.148951768875e+00   2.211061239243e+00   2.229412317276e+00   2.233925580978e+00   2.229722023010e+00 
  2.401260614395e+00   2.488439083099e+00   2.585414171219e+00   2.765907526016e+00   2.433684110641e+00   2.362244606018e+00   2.331550359726e+00   2.276531934738e+00   2.445471525192e+00 
  2.255722045898e+00   0.000000000000e+00   0.000000000000e+00   2.150268077850e+00   1.960465908051e+00   1.893540978432e+00   1.809425830841e+00   1.770392417908e+00   1.781942486763e+00 
  1.772546291351e+00   1.789687395096e+00   1.835229396820e+00   1.933057427406e+00   1.943440914154e+00   1.912179470062e+00   1.962664246559e+00   2.056814193726e+00   2.116044759750e+00 
  2.213230848312e+00   2.403688192368e+00   2.132637023926e+00   0.000000000000e+00   0.000000000000e+00   2.453893899918e+00   2.306198596954e+00   2.125947475433e+00   2.337193727493e+00 
  4.109711647034e+00   2.006549119949e+00   1.866954922676e+00   2.067188262939e+00   2.064335107803e+00   2.116279602051e+00   1.985056877136e+00   2.247233152390e+00   2.112766742706e+00 
  2.489080905914e+00   2.702221632004e+00   2.189772844315e+00   5.060127735138e+00   2.413715362549e+00   0.000000000000e+00   0.000000000000e+00   0.000000000000e+00   0.000000000000e+00 
  0.000000000000e+00   0.000000000000e+00   0.000000000000e+00   0.000000000000e+00   0.000000000000e+00   0.000000000000e+00   0.000000000000e+00   0.000000000000e+00   0.000000000000e+00 
  0.000000000000e+00   0.000000000000e+00   0.000000000000e+00   0.000000000000e+00   0.000000000000e+00   0.000000000000e+00   0.000000000000e+00   0.000000000000e+00   0.000000000000e+00 
  0.000000000000e+00   0.000000000000e+00   0.000000000000e+00   0.000000000000e+00   0.000000000000e+00   0.000000000000e+00   0.000000000000e+00   0.000000000000e+00   0.000000000000e+00 
  0.000000000000e+00   0.000000000000e+00   0.000000000000e+00   0.000000000000e+00   0.000000000000e+00   0.000000000000e+00   0.000000000000e+00   0.000000000000e+00   0.000000000000e+00 
  0.000000000000e+00   0.000000000000e+00   1.166971921921e+00   1.140627861023e+00   1.149276614189e+00   1.164728403091e+00   1.209320187569e+00   1.351464390755e+00   1.347878813744e+00 
  1.285380721092e+00   1.319517374039e+00   1.234367012978e+00   1.146195173264e+00   1.153583049774e+00   1.189328074455e+00   1.200912117958e+00   1.195237040520e+00   1.189487814903e+00 
  1.230906009674e+00   1.193658351898e+00   0.000000000000e+00   0.000000000000e+00   1.161865830421e+00   1.113100767136e+00   1.108894467354e+00   1.116674304008e+00   1.139148950577e+00 
  9.478517770767e-01   1.010411739349e+00   1.186215639114e+00   1.142330050468e+00   1.152066349983e+00   1.163784623146e+00   1.187093853951e+00   1.223868250847e+00   1.239641547203e+00 
  1.169323563576e+00   1.198690295219e+00   1.132841467857e+00   1.224022150040e+00   0.000000000000e+00   0.000000000000e+00   1.210261821747e+00   1.185297012329e+00   1.084586858749e+00 
  1.127641201019e+00   1.689331650734e+00   1.394260883331e+00   9.856728315353e-01   1.072662353516e+00   1.100900769234e+00   1.102417349815e+00   1.112185001373e+00   1.080109000206e+00 
  1.008738756180e+00   1.102017998695e+00   1.242449283600e+00   1.214096665382e+00   1.131869316101e+00   1.262433171272e+00   0.000000000000e+00   0.000000000000e+00   1.056498885155e+00 
  1.041996836662e+00   1.029303789139e+00   1.017338037491e+00   1.061606526375e+00   8.804511427879e-01   1.098042726517e+00   1.009309411049e+00   9.714425206184e-01   1.011230826378e+00 
  1.056882143021e+00   9.685180187225e-01   1.106849312782e+00   1.285447955132e+00   9.483881592751e-01   9.899448752403e-01   1.070587158203e+00   1.065421462059e+00   0.000000000000e+00 
  0.000000000000e+00   1.205197453499e+00   1.018171906471e+00   9.934889674187e-01   9.333720803261e-01   9.326238036156e-01   9.074053168297e-01   9.584053158760e-01   9.517802596092e-01 
  1.026136755943e+00   1.001097083092e+00   9.039922356606e-01   1.039096593857e+00   1.095484375954e+00   9.962061643600e-01   9.285272955894e-01   9.588715434074e-01   8.255016207695e-01 
  8.307684063911e-01   0.000000000000e+00   0.000000000000e+00   1.407997608185e+00   1.139868497849e+00   9.570622444153e-01   1.017768859863e+00   8.600139617920e-01   8.421314954758e-01 
  1.008265495300e+00   1.011687040329e+00   1.019388198853e+00   1.024631142616e+00   1.042873501778e+00   8.705611228943e-01   8.002605438232e-01   7.480785250664e-01   7.246178388596e-01 
  6.485415101051e-01   6.878147125244e-01   7.001933455467e-01   0.000000000000e+00   0.000000000000e+00   8.821122646332e-01   9.376702308655e-01   1.014417529106e+00   9.890753030777e-01 
  8.317871093750e-01   7.528755068779e-01   8.059200644493e-01   8.856326341629e-01   9.731228351593e-01   8.858540058136e-01   7.819496393204e-01   7.315481305122e-01   6.356017589569e-01 
  6.841565966606e-01   6.825461983681e-01   6.697546243668e-01   5.787468552589e-01   5.357074737549e-01   0.000000000000e+00   0.000000000000e+00   1.021280288696e+00   9.086767435074e-01 
  8.590466380119e-01   7.544868588448e-01   6.384090781212e-01   7.245861291885e-01   6.995577812195e-01   7.591404318810e-01   8.262410759926e-01   7.257217764854e-01   7.554963827133e-01 
  6.963392496109e-01   6.922129988670e-01   6.998806595802e-01   7.047311663628e-01   6.128719449043e-01   5.835127830505e-01   6.998425126076e-01   0.000000000000e+00   0.000000000000e+00 
  7.431765794754e-01   7.090380787849e-01   6.796966791153e-01   6.757413744926e-01   5.540150403976e-01   5.146960020065e-01   5.990171432495e-01   6.467498540878e-01   6.563245654106e-01 
  6.265713572502e-01   5.833359956741e-01   6.800545454025e-01   5.952404737473e-01   6.167396903038e-01   6.621582508087e-01   5.899049043655e-01   5.065629482269e-01   5.968891382217e-01 
  0.000000000000e+00   0.000000000000e+00   5.388712286949e-01   6.622794866562e-01   5.668379068375e-01   5.188067555428e-01   4.445476531982e-01   4.449213743210e-01   5.096747279167e-01 
  5.137087106705e-01   5.617662668228e-01   5.632910728455e-01   5.650530457497e-01   6.057972908020e-01   5.463621020317e-01   5.775598883629e-01   5.811642408371e-01   6.258267164230e-01 
  6.639965176582e-01   6.421650052071e-01   0.000000000000e+00   0.000000000000e+00   4.090797901154e-01   6.134154200554e-01   5.485841631889e-01   5.047945976257e-01   4.063721299171e-01 
  4.430380165577e-01   4.926719963551e-01   5.297430157661e-01   5.670514106750e-01   4.933798015118e-01   5.319912433624e-01   5.164903998375e-01   5.154610276222e-01   5.864686965942e-01 
  5.252171754837e-01   6.047765612602e-01   5.815752148628e-01   6.363934278488e-01   0.000000000000e+00   0.000000000000e+00   5.511012077332e-01   5.934035778046e-01   4.788187444210e-01 
  4.543006420135e-01   3.300843834877e-01   4.084056019783e-01   4.219058752060e-01   4.594305157661e-01   4.236737489700e-01   5.054020285606e-01   5.174772739410e-01   6.100761890411e-01 
  6.610063910484e-01   5.889337658882e-01   5.980646014214e-01   6.453680396080e-01   6.327288150787e-01   7.863029837608e-01   0.000000000000e+00   0.000000000000e+00   5.491092205048e-01 
  4.868519306183e-01   5.166546106339e-01   4.569146037102e-01   3.652662634850e-01   4.187797605991e-01   4.886044263840e-01   5.088760852814e-01   5.072076320648e-01   5.832806229591e-01 
  5.667231678963e-01   5.581026673317e-01   6.000741720200e-01   6.583698391914e-01   5.874416828156e-01   5.634893774986e-01   6.190527677536e-01   8.133119940758e-01   0.000000000000e+00 
  0.000000000000e+00   3.773268163204e-01   3.872596621513e-01   3.559190630913e-01   3.085799217224e-01   2.679606080055e-01   2.667624652386e-01   3.376483321190e-01   3.965588808060e-01 
  4.279451072216e-01   4.740753173828e-01   4.992278516293e-01   5.227213501930e-01   5.539137721062e-01   6.177496910095e-01   6.212627291679e-01   7.105009555817e-01   6.821404099464e-01 
  7.837486267090e-01   0.000000000000e+00   0.000000000000e+00   3.017233908176e-01   2.690988779068e-01   2.182771414518e-01   1.780683845282e-01   2.116216272116e-01   1.870019584894e-01 
  2.008821517229e-01   2.797755897045e-01   3.914924561977e-01   4.701809585094e-01   4.563780725002e-01   4.115967750549e-01   4.613555073738e-01   4.725117385387e-01   5.381516814232e-01 
  6.525925397873e-01   6.302122473717e-01   8.553974032402e-01   0.000000000000e+00   0.000000000000e+00   3.512862920761e-01   2.947989702225e-01   2.878709435463e-01   2.135229259729e-01 
  9.417287260294e-02   1.067003011703e-01   1.166634038091e-01   1.319848299026e-01   1.230206191540e-01   1.364322006702e-01   1.736963242292e-01   1.572066247463e-01   2.476267516613e-01 
  3.594491481781e-01   4.612747728825e-01   6.579331755638e-01   6.350150704384e-01   8.758469223976e-01   0.000000000000e+00   0.000000000000e+00   5.254995822906e-01   5.917366147041e-01 
  6.443392038345e-01   5.514436960220e-01   5.171863436699e-01   5.243686437607e-01   4.855011403561e-01   4.541895687580e-01   5.554047226906e-01   5.910281538963e-01   5.642511844635e-01 
  6.069123148918e-01   6.292892098427e-01   5.969148278236e-01   7.530276775360e-01   7.554568648338e-01   7.469877004623e-01   8.508598208427e-01   0.000000000000e+00   0.000000000000e+00 
  1.293918728828e+00   1.893289566040e+00   9.277323484421e-01   1.011824011803e+00   8.804427981377e-01   1.188062906265e+00   7.204068303108e-01   7.387390732765e-01   7.114958167076e-01 
  6.335902214050e-01   9.720660448074e-01   7.906278371811e-01   9.563826322556e-01   1.789311766624e+00   1.126654982567e+00   2.049606800079e+00   1.001341938972e+00   9.344300627708e-01 
  0.000000000000e+00   0.000000000000e+00   0.000000000000e+00   0.000000000000e+00   0.000000000000e+00   0.000000000000e+00   0.000000000000e+00   0.000000000000e+00   0.000000000000e+00 
  0.000000000000e+00   0.000000000000e+00   0.000000000000e+00   0.000000000000e+00   0.000000000000e+00   0.000000000000e+00   0.000000000000e+00   0.000000000000e+00   0.000000000000e+00 
  0.000000000000e+00   0.000000000000e+00   0.000000000000e+00   0.000000000000e+00   0.000000000000e+00   0.000000000000e+00   0.000000000000e+00   0.000000000000e+00   0.000000000000e+00 
  0.000000000000e+00   0.000000000000e+00   0.000000000000e+00   0.000000000000e+00   0.000000000000e+00   0.000000000000e+00   0.000000000000e+00   0.000000000000e+00   0.000000000000e+00 
  0.000000000000e+00   0.000000000000e+00   0.000000000000e+00   0.000000000000e+00   0.000000000000e+00   0.000000000000e+00   7.686947584152e-01   6.994120478630e-01   6.964016556740e-01 
  7.152465581894e-01   7.073855400085e-01   7.278594374657e-01   7.494364380836e-01   7.190063595772e-01   6.539763808250e-01   6.809243559837e-01   7.413822412491e-01   7.308398485184e-01 
  7.128479480743e-01   7.142750024796e-01   7.209417819977e-01   7.248616814613e-01   7.224873304367e-01   7.493291497231e-01   0.000000000000e+00   0.000000000000e+00   6.368909478188e-01 
  5.887377858162e-01   5.724077820778e-01   5.375573635101e-01   6.867659687996e-01   7.690911889076e-01   5.895944833755e-01   6.448572874069e-01   7.473758459091e-01   6.389232873917e-01 
  6.115108728409e-01   5.911914706230e-01   6.332303881645e-01   6.772182583809e-01   6.090850830078e-01   6.528331637383e-01   6.498206257820e-01   7.576484084129e-01   0.000000000000e+00 
  0.000000000000e+00   4.937411546707e-01   4.756324887276e-01   5.559190511703e-01   5.420864820480e-01   4.827179312706e-01   4.591975808144e-01   6.941484212875e-01   5.127979516983e-01 
  4.516241252422e-01   5.625788569450e-01   5.231673121452e-01   5.646531581879e-01   5.917913913727e-01   4.873423278332e-01   6.921031475067e-01   6.765789389610e-01   5.743212103844e-01 
  6.269304156303e-01   0.000000000000e+00   0.000000000000e+00   7.864260077477e-01   6.465203166008e-01   5.290338993073e-01   4.541128277779e-01   4.180472195148e-01   4.369481503963e-01 
  4.024674296379e-01   5.314126610756e-01   5.872004628181e-01   5.595982074738e-01   5.385466217995e-01   5.690950155258e-01   5.005828142166e-01   5.108696222305e-01   4.798629879951e-01 
  3.805016279221e-01   5.610443949699e-01   6.135608553886e-01   0.000000000000e+00   0.000000000000e+00   6.952886581421e-01   5.242704153061e-01   5.025175809860e-01   5.473222732544e-01 
  4.047204256058e-01   4.916569590569e-01   4.410734176636e-01   4.233347475529e-01   3.873703181744e-01   4.275310933590e-01   4.591501057148e-01   3.953414857388e-01   3.904831409454e-01 
  3.069926798344e-01   3.847575187683e-01   4.502563476562e-01   2.248744517565e-01   2.239867448807e-01   0.000000000000e+00   0.000000000000e+00   3.395164310932e-01   3.346319794655e-01 
  4.816781878471e-01   3.725208938122e-01   3.623934090137e-01   2.576200366020e-01   2.729651331902e-01   3.272379934788e-01   3.509808480740e-01   3.041997253895e-01   2.851136326790e-01 
  2.536397576332e-01   2.380045354366e-01   2.911312282085e-01   2.544493377209e-01   1.441864073277e-01   1.054773032665e-01   4.829501211643e-01   0.000000000000e+00   0.000000000000e+00 