# vtk DataFile Version 2.0
Written using VisIt writer
ASCII
DATASET RECTILINEAR_GRID
DIMENSIONS 20 20 20
X_COORDINATES 20 float
  0.000000000000e+00   1.000000000000e+00   2.000000000000e+00   3.000000000000e+00   4.000000000000e+00   5.000000000000e+00   6.000000000000e+00   7.000000000000e+00   8.000000000000e+00 
  9.000000000000e+00   1.000000000000e+01   1.100000000000e+01   1.200000000000e+01   1.300000000000e+01   1.400000000000e+01   1.500000000000e+01   1.600000000000e+01   1.700000000000e+01 
  1.800000000000e+01   1.900000000000e+01 
Y_COORDINATES 20 float
  0.000000000000e+00   1.000000000000e+00   2.000000000000e+00   3.000000000000e+00   4.000000000000e+00   5.000000000000e+00   6.000000000000e+00   7.000000000000e+00   8.000000000000e+00 
  9.000000000000e+00   1.000000000000e+01   1.100000000000e+01   1.200000000000e+01   1.300000000000e+01   1.400000000000e+01   1.500000000000e+01   1.600000000000e+01   1.700000000000e+01 
  1.800000000000e+01   1.900000000000e+01 
Z_COORDINATES 20 float
  0.000000000000e+00   1.000000000000e+00   2.000000000000e+00   3.000000000000e+00   4.000000000000e+00   5.000000000000e+00   6.000000000000e+00   7.000000000000e+00   8.000000000000e+00 
  9.000000000000e+00   1.000000000000e+01   1.100000000000e+01   1.200000000000e+01   1.300000000000e+01   1.400000000000e+01   1.500000000000e+01   1.600000000000e+01   1.700000000000e+01 
  1.800000000000e+01   1.900000000000e+01 
CELL_DATA 6859
POINT_DATA 8000
SCALARS pressure float
LOOKUP_TABLE default
  0.000000000000e+00   0.000000000000e+00   0.000000000000e+00   0.000000000000e+00   0.000000000000e+00   0.000000000000e+00   0.000000000000e+00   0.000000000000e+00   0.000000000000e+00 
  0.000000000000e+00   0.000000000000e+00   0.000000000000e+00   0.000000000000e+00   0.000000000000e+00   0.000000000000e+00   0.000000000000e+00   0.000000000000e+00   0.000000000000e+00 
  0.000000000000e+00   0.000000000000e+00   0.000000000000e+00   0.000000000000e+00   0.000000000000e+00   0.000000000000e+00   0.000000000000e+00   0.000000000000e+00   0.000000000000e+00 
  0.000000000000e+00   0.000000000000e+00   0.000000000000e+00   0.000000000000e+00   0.000000000000e+00   0.000000000000e+00   0.000000000000e+00   0.000000000000e+00   0.000000000000e+00 
  0.000000000000e+00   0.000000000000e+00   0.000000000000e+00   0.000000000000e+00   0.000000000000e+00   0.000000000000e+00   0.000000000000e+00   0.000000000000e+00   0.000000000000e+00 
  0.000000000000e+00   0.000000000000e+00   0.000000000000e+00   0.000000000000e+00   0.000000000000e+00   0.000000000000e+00   0.000000000000e+00   0.000000000000e+00   0.000000000000e+00 
  0.000000000000e+00   0.000000000000e+00   0.000000000000e+00   0.000000000000e+00   0.000000000000e+00   0.000000000000e+00   0.000000000000e+00   0.000000000000e+00   0.000000000000e+00 
  0.000000000000e+00   0.000000000000e+00   0.000000000000e+00   0.000000000000e+00   0.000000000000e+00   0.000000000000e+00   0.000000000000e+00   0.000000000000e+00   0.000000000000e+00 
  0.000000000000e+00   0.000000000000e+00   0.000000000000e+00   0.000000000000e+00   0.000000000000e+00   0.000000000000e+00   0.000000000000e+00   0.000000000000e+00   0.000000000000e+00 
  0.000000000000e+00   0.000000000000e+00   0.000000000000e+00   0.000000000000e+00   0.000000000000e+00   0.000000000000e+00   0.000000000000e+00   0.000000000000e+00   0.000000000000e+00 
  0.000000000000e+00   0.000000000000e+00   0.000000000000e+00   0.000000000000e+00   0.000000000000e+00   0.000000000000e+00   0.000000000000e+00   0.000000000000e+00   0.000000000000e+00 
  0.000000000000e+00   0.000000000000e+00   0.000000000000e+00   0.000000000000e+00   0.000000000000e+00   0.000000000000e+00   0.000000000000e+00   0.000000000000e+00   0.000000000000e+00 
  0.000000000000e+00   0.000000000000e+00   0.000000000000e+00   0.000000000000e+00   0.000000000000e+00   0.000000000000e+00   0.000000000000e+00   0.000000000000e+00   0.000000000000e+00 
  0.000000000000e+00   0.000000000000e+00   0.000000000000e+00   0.000000000000e+00   0.000000000000e+00   0.000000000000e+00   0.000000000000e+00   0.000000000000e+00   0.000000000000e+00 
  0.000000000000e+00   0.000000000000e+00   0.000000000000e+00   0.000000000000e+00   0.000000000000e+00   0.000000000000e+00   0.000000000000e+00   0.000000000000e+00   0.000000000000e+00 
  0.000000000000e+00   0.000000000000e+00   0.000000000000e+00   0.000000000000e+00   0.000000000000e+00   0.000000000000e+00   0.000000000000e+00   0.000000000000e+00   0.000000000000e+00 
  0.000000000000e+00   0.000000000000e+00   0.000000000000e+00   0.000000000000e+00   0.000000000000e+00   0.000000000000e+00   0.000000000000e+00   0.000000000000e+00   0.000000000000e+00 
  0.000000000000e+00   0.000000000000e+00   0.000000000000e+00   0.000000000000e+00   0.000000000000e+00   0.000000000000e+00   0.000000000000e+00   0.000000000000e+00   0.000000000000e+00 
  0.000000000000e+00   0.000000000000e+00   0.000000000000e+00   0.000000000000e+00   0.000000000000e+00   0.000000000000e+00   0.000000000000e+00   0.000000000000e+00   0.000000000000e+00 
  0.000000000000e+00   0.000000000000e+00   0.000000000000e+00   0.000000000000e+00   0.000000000000e+00   0.000000000000e+00   0.000000000000e+00   0.000000000000e+00   0.000000000000e+00 
  0.000000000000e+00   0.000000000000e+00   0.000000000000e+00   0.000000000000e+00   0.000000000000e+00   0.000000000000e+00   0.000000000000e+00   0.000000000000e+00   0.000000000000e+00 
  0.000000000000e+00   0.000000000000e+00   0.000000000000e+00   0.000000000000e+00   0.000000000000e+00   0.000000000000e+00   0.000000000000e+00   0.000000000000e+00   0.000000000000e+00 
  0.000000000000e+00   0.000000000000e+00   0.000000000000e+00   0.000000000000e+00   0.000000000000e+00   0.000000000000e+00   0.000000000000e+00   0.000000000000e+00   0.000000000000e+00 
  0.000000000000e+00   0.000000000000e+00   0.000000000000e+00   0.000000000000e+00   0.000000000000e+00   0.000000000000e+00   0.000000000000e+00   0.000000000000e+00   0.000000000000e+00 
  0.000000000000e+00   0.000000000000e+00   0.000000000000e+00   0.000000000000e+00   0.000000000000e+00   0.000000000000e+00   0.000000000000e+00   0.000000000000e+00   0.000000000000e+00 
  0.000000000000e+00   0.000000000000e+00   0.000000000000e+00   0.000000000000e+00   0.000000000000e+00   0.000000000000e+00   0.000000000000e+00   0.000000000000e+00   0.000000000000e+00 
  0.000000000000e+00   0.000000000000e+00   0.000000000000e+00   0.000000000000e+00   0.000000000000e+00   0.000000000000e+00   0.000000000000e+00   0.000000000000e+00   0.000000000000e+00 
  0.000000000000e+00   0.000000000000e+00   0.000000000000e+00   0.000000000000e+00   0.000000000000e+00   0.000000000000e+00   0.000000000000e+00   0.000000000000e+00   0.000000000000e+00 
  0.000000000000e+00   0.000000000000e+00   0.000000000000e+00   0.000000000000e+00   0.000000000000e+00   0.000000000000e+00   0.000000000000e+00   0.000000000000e+00   0.000000000000e+00 
  0.000000000000e+00   0.000000000000e+00   0.000000000000e+00   0.000000000000e+00   0.000000000000e+00   0.000000000000e+00   0.000000000000e+00   0.000000000000e+00   0.000000000000e+00 
  0.000000000000e+00   0.000000000000e+00   0.000000000000e+00   0.000000000000e+00   0.000000000000e+00   0.000000000000e+00   0.000000000000e+00   0.000000000000e+00   0.000000000000e+00 
  0.000000000000e+00   0.000000000000e+00   0.000000000000e+00   0.000000000000e+00   0.000000000000e+00   0.000000000000e+00   0.000000000000e+00   0.000000000000e+00   0.000000000000e+00 
  0.000000000000e+00   0.000000000000e+00   0.000000000000e+00   0.000000000000e+00   0.000000000000e+00   0.000000000000e+00   0.000000000000e+00   0.000000000000e+00   0.000000000000e+00 
  0.000000000000e+00   0.000000000000e+00   0.000000000000e+00   0.000000000000e+00   0.000000000000e+00   0.000000000000e+00   0.000000000000e+00   0.000000000000e+00   0.000000000000e+00 
  0.000000000000e+00   0.000000000000e+00   0.000000000000e+00   0.000000000000e+00   0.000000000000e+00   0.000000000000e+00   0.000000000000e+00   0.000000000000e+00   0.000000000000e+00 
  0.000000000000e+00   0.000000000000e+00   0.000000000000e+00   0.000000000000e+00   0.000000000000e+00   0.000000000000e+00   0.000000000000e+00   0.000000000000e+00   0.000000000000e+00 
  0.000000000000e+00   0.000000000000e+00   0.000000000000e+00   0.000000000000e+00   0.000000000000e+00   0.000000000000e+00   0.000000000000e+00   0.000000000000e+00   0.000000000000e+00 
  0.000000000000e+00   0.000000000000e+00   0.000000000000e+00   0.000000000000e+00   0.000000000000e+00   0.000000000000e+00   0.000000000000e+00   0.000000000000e+00   0.000000000000e+00 
  0.000000000000e+00   0.000000000000e+00   0.000000000000e+00   0.000000000000e+00   0.000000000000e+00   0.000000000000e+00   0.000000000000e+00   0.000000000000e+00   0.000000000000e+00 
  0.000000000000e+00   0.000000000000e+00   0.000000000000e+00   0.000000000000e+00   0.000000000000e+00   0.000000000000e+00   0.000000000000e+00   0.000000000000e+00   0.000000000000e+00 
  0.000000000000e+00   0.000000000000e+00   0.000000000000e+00   0.000000000000e+00   0.000000000000e+00   0.000000000000e+00   0.000000000000e+00   0.000000000000e+00   0.000000000000e+00 
  0.000000000000e+00   0.000000000000e+00   0.000000000000e+00   0.000000000000e+00   0.000000000000e+00   0.000000000000e+00   0.000000000000e+00   0.000000000000e+00   0.000000000000e+00 
  0.000000000000e+00   0.000000000000e+00   0.000000000000e+00   0.000000000000e+00   0.000000000000e+00   0.000000000000e+00   0.000000000000e+00   0.000000000000e+00   0.000000000000e+00 
  0.000000000000e+00   0.000000000000e+00   0.000000000000e+00   0.000000000000e+00   0.000000000000e+00   0.000000000000e+00   0.000000000000e+00   0.000000000000e+00   0.000000000000e+00 
  0.000000000000e+00   0.000000000000e+00   0.000000000000e+00   0.000000000000e+00   0.000000000000e+00   0.000000000000e+00   0.000000000000e+00   0.000000000000e+00   0.000000000000e+00 
  0.000000000000e+00   0.000000000000e+00   0.000000000000e+00   0.000000000000e+00   0.000000000000e+00   0.000000000000e+00   0.000000000000e+00   0.000000000000e+00   0.000000000000e+00 
  0.000000000000e+00   0.000000000000e+00   0.000000000000e+00   0.000000000000e+00   0.000000000000e+00   0.000000000000e+00   0.000000000000e+00   1.358486890793e+00   1.260220885277e+00 
  1.259108304977e+00   1.238631486893e+00   1.278841853142e+00   1.301670551300e+00   1.311572551727e+00   1.286173582077e+00   1.259030699730e+00   1.285820960999e+00   1.267960548401e+00 
  1.263729453087e+00   1.253241062164e+00   1.252573013306e+00   1.278600692749e+00   1.268723011017e+00   1.280065774918e+00   1.359581351280e+00   0.000000000000e+00   0.000000000000e+00 
  1.267202734947e+00   1.170551419258e+00   1.148062944412e+00   1.173284649849e+00   1.150140047073e+00   1.112986445427e+00   1.093335390091e+00   1.122951984406e+00   1.145385980606e+00 
  1.120028614998e+00   1.142563819885e+00   1.160984992981e+00   1.181969761848e+00   1.203593015671e+00   1.153117418289e+00   1.192190885544e+00   1.208333611488e+00   1.316716074944e+00 
  0.000000000000e+00   0.000000000000e+00   1.227590441704e+00   1.105184197426e+00   1.105471253395e+00   1.070927262306e+00   1.109035491943e+00   1.155781626701e+00   1.109191894531e+00 
  1.106896758080e+00   1.070110797882e+00   1.081622481346e+00   1.078068494797e+00   1.091397047043e+00   1.137996792793e+00   1.148775339127e+00   1.168095469475e+00   1.139297485352e+00 
  1.113999485970e+00   1.259822845459e+00   0.000000000000e+00   0.000000000000e+00   1.166528820992e+00   1.066126108170e+00   1.069376468658e+00   1.064803481102e+00   1.078796982765e+00 
  1.127150177956e+00   1.020930886269e+00   1.064381122589e+00   1.033935666084e+00   1.076223492622e+00   1.120275616646e+00   1.084028601646e+00   1.134116530418e+00   1.171568036079e+00 
  1.095701456070e+00   1.153770089149e+00   1.164422392845e+00   1.327867507935e+00   0.000000000000e+00   0.000000000000e+00   1.159328341484e+00   1.032108426094e+00   1.041929602623e+00 
  1.012692809105e+00   1.021670818329e+00   9.983174204826e-01   1.016133904457e+00   1.024225354195e+00   1.011004447937e+00   9.974856972694e-01   1.000717401505e+00   1.160254359245e+00 
  1.241291403770e+00   1.344021558762e+00   1.340396046638e+00   1.236548781395e+00   1.182276487350e+00   1.351827979088e+00   0.000000000000e+00   0.000000000000e+00   1.159674763680e+00 
  1.107369542122e+00   1.089885115623e+00   1.087214946747e+00   1.023292660713e+00   1.067108273506e+00   9.887741804123e-01   1.054554700851e+00   1.010155081749e+00   1.117458462715e+00 
  1.115638375282e+00   1.017500877380e+00   1.102199554443e+00   1.094831585884e+00   1.220155119896e+00   1.363474726677e+00   1.294363975525e+00   1.251361131668e+00   0.000000000000e+00 
  0.000000000000e+00   1.231524109840e+00   1.114583253860e+00   1.096838831902e+00   1.128600716591e+00   1.165467381477e+00   1.117650747299e+00   1.129238009453e+00   1.097517251968e+00 
  1.093574404716e+00   1.029765248299e+00   1.003512620926e+00   1.055170416832e+00   1.109869480133e+00   1.164767265320e+00   1.106201767921e+00   1.144027709961e+00   1.285268068314e+00 
  1.217097163200e+00   0.000000000000e+00   0.000000000000e+00   1.182562947273e+00   1.074393868446e+00   1.035642981529e+00   9.972935318947e-01   9.958965182304e-01   1.017145872116e+00 
  1.004147768021e+00   1.010473132133e+00   9.907784461975e-01   1.050042390823e+00   1.149721145630e+00   1.101053833961e+00   1.054764151573e+00   1.045276165009e+00   1.034653067589e+00 
  1.047109127045e+00   1.198591947556e+00   1.120274543762e+00   0.000000000000e+00   0.000000000000e+00   1.189608573914e+00   1.063910245895e+00   1.105402588844e+00   1.087042927742e+00 
  1.146585226059e+00   1.126004338264e+00   1.129001736641e+00   1.157362222672e+00   1.159856677055e+00   1.148946642876e+00   1.080518841743e+00   1.055072784424e+00   1.071005702019e+00 
  1.081026196480e+00   1.116150379181e+00   1.102438211441e+00   1.187952160835e+00   1.123418688774e+00   0.000000000000e+00   0.000000000000e+00   1.288872838020e+00   1.188148498535e+00 
  1.098727345467e+00   1.034938812256e+00   1.055461287498e+00   1.054602146149e+00   1.060394287109e+00   1.032762050629e+00   1.003830552101e+00   1.037663459778e+00   1.120987892151e+00 
  1.110345005989e+00   1.167375206947e+00   1.200639247894e+00   1.138305187225e+00   1.137739896774e+00   1.114097476006e+00   1.263609051704e+00   0.000000000000e+00   0.000000000000e+00 
  1.258671879768e+00   1.138252377510e+00   1.132838487625e+00   1.166677474976e+00   1.167050480843e+00   1.120973348618e+00   1.146640419960e+00   1.110861063004e+00   1.055527687073e+00 
  1.102690100670e+00   1.095527052879e+00   1.175109386444e+00   1.161565780640e+00   1.152302265167e+00   1.138477563858e+00   1.140873670578e+00   1.085376858711e+00   1.325601935387e+00 
  0.000000000000e+00   0.000000000000e+00   1.366391420364e+00   1.267593145370e+00   1.105230212212e+00   1.087875127792e+00   1.128006100655e+00   1.158150792122e+00   1.133726835251e+00 
  1.119929790497e+00   1.124662876129e+00   1.045947551727e+00   1.063842654228e+00   1.155781507492e+00   1.301929473877e+00   1.257237315178e+00   1.282228231430e+00   1.149600863457e+00 
  1.166052818298e+00   1.112792134285e+00   0.000000000000e+00   0.000000000000e+00   1.397524952888e+00   1.247067689896e+00   1.130004405975e+00   1.166838049889e+00   1.242184162140e+00 
  1.208488106728e+00   1.174895048141e+00   1.212927579880e+00   1.662221789360e+00   1.202260613441e+00   1.161590814590e+00   1.189819097519e+00   1.217782258987e+00   1.267783522606e+00 
  1.204354763031e+00   1.252498984337e+00   1.027179241180e+00   1.335118651390e+00   0.000000000000e+00   0.000000000000e+00   1.386484980583e+00   1.249459147453e+00   1.156852960587e+00 
  1.187404751778e+00   1.242715835571e+00   1.240729212761e+00   1.139420151711e+00   1.074958205223e+00   1.068158626556e+00   1.021091341972e+00   1.130415558815e+00   1.231948971748e+00 
  1.360729932785e+00   1.352710127831e+00   1.299770832062e+00   1.623874545097e+00   1.236651778221e+00   1.911825776100e+00   0.000000000000e+00   0.000000000000e+00   1.440152525902e+00 
  1.276968598366e+00   1.209892988205e+00   1.179450511932e+00   1.208939075470e+00   1.207357645035e+00   1.258248209953e+00   1.222176671028e+00   1.206804037094e+00   1.214184284210e+00 
  1.146917104721e+00   1.225699543953e+00   1.372772455215e+00   1.325710892677e+00   1.217601895332e+00   1.191731095314e+00   1.154037833214e+00   1.304159879684e+00   0.000000000000e+00 
  0.000000000000e+00   1.220388174057e+00   1.115129947662e+00   1.070359945297e+00   1.041827201843e+00   1.043417096138e+00   9.138609766960e-01   6.390904784203e-01   1.553092718124e+00 
  8.254121541977e-01   6.986088156700e-01   8.630105853081e-01   1.061242580414e+00   1.110296964645e+00   1.233946800232e+00   1.254874825478e+00   1.266986012459e+00   1.290639638901e+00 
  1.441903352737e+00   0.000000000000e+00   0.000000000000e+00   1.342150330544e+00   1.282144784927e+00   1.353491544724e+00   1.389050841331e+00   1.351044774055e+00   1.461415171623e+00 
  1.295547127724e+00   1.141169309616e+00   1.255686402321e+00   1.226610183716e+00   1.276530623436e+00   1.215039849281e+00   1.354588747025e+00   1.227428674698e+00   1.301803946495e+00 
  1.320164322853e+00   1.285123586655e+00   1.372923016548e+00   0.000000000000e+00   0.000000000000e+00   2.894415140152e+00   2.000360727310e+00   1.885137796402e+00   1.987362027168e+00 
  1.753624200821e+00   7.610460519791e-01   1.831271171570e+00   1.169035792351e+00   9.603003263474e-01   1.640954732895e+00   9.217643141747e-01   1.306010842323e+00   1.333219289780e+00 
  1.469899177551e+00   1.693976283073e+00   1.881269216537e+00   1.792276620865e+00   2.109684228897e+00   0.000000000000e+00   0.000000000000e+00   0.000000000000e+00   0.000000000000e+00 
  0.000000000000e+00   0.000000000000e+00   0.000000000000e+00   0.000000000000e+00   0.000000000000e+00   0.000000000000e+00   0.000000000000e+00   0.000000000000e+00   0.000000000000e+00 
  0.000000000000e+00   0.000000000000e+00   0.000000000000e+00   0.000000000000e+00   0.000000000000e+00   0.000000000000e+00   0.000000000000e+00   0.000000000000e+00   0.000000000000e+00 
  0.000000000000e+00   0.000000000000e+00   0.000000000000e+00   0.000000000000e+00   0.000000000000e+00   0.000000000000e+00   0.000000000000e+00   0.000000000000e+00   0.000000000000e+00 
  0.000000000000e+00   0.000000000000e+00   0.000000000000e+00   0.000000000000e+00   0.000000000000e+00   0.000000000000e+00   0.000000000000e+00   0.000000000000e+00   0.000000000000e+00 
  0.000000000000e+00   0.000000000000e+00   6.360716223717e-01   5.611862540245e-01   5.562945008278e-01   5.813789367676e-01   5.933969020844e-01   5.918962359428e-01   5.756555795670e-01 
  5.359706878662e-01   5.219465494156e-01   5.275011658669e-01   5.415143370628e-01   5.541587471962e-01   5.673647522926e-01   5.795201659203e-01   5.933666825294e-01   5.962195396423e-01 
  6.121696233749e-01   6.447752118111e-01   0.000000000000e+00   0.000000000000e+00   5.569939613342e-01   4.824628531933e-01   4.759534299374e-01   4.545986950397e-01   6.091209650040e-01 
  7.687198519707e-01   6.066867113113e-01   5.069487094879e-01   4.988373517990e-01   4.575071632862e-01   4.353559315205e-01   4.573256373405e-01   4.875713586807e-01   4.973475039005e-01 
  5.221233367920e-01   5.296831130981e-01   5.327928066254e-01   6.214799284935e-01   0.000000000000e+00   0.000000000000e+00   5.623698830605e-01   5.225415825844e-01   5.097518563271e-01 
  5.027575492859e-01   4.878185093403e-01   4.655238986015e-01   5.141454339027e-01   5.192810297012e-01   5.307226777077e-01   5.454767346382e-01   5.401501655579e-01   5.671582818031e-01 
  5.930206179619e-01   6.067932248116e-01   5.764240622520e-01   6.105707287788e-01   5.875073075294e-01   6.939070820808e-01   0.000000000000e+00   0.000000000000e+00   5.611670613289e-01 
  5.563675165176e-01   4.980502426624e-01   4.710681438446e-01   4.409365952015e-01   3.833915889263e-01   5.007067918777e-01   5.086165070534e-01   5.611859560013e-01   5.162371993065e-01 
  5.208889842033e-01   5.267241001129e-01   5.394520163536e-01   6.436485648155e-01   7.702984213829e-01   5.654762387276e-01   5.467610955238e-01   6.329478025436e-01   0.000000000000e+00 
  0.000000000000e+00   5.074070692062e-01   5.165628194809e-01   4.817726910114e-01   5.090904831886e-01   4.279150962830e-01   5.174143314362e-01   4.903835654259e-01   4.784519374371e-01 
  5.202931165695e-01   5.014306306839e-01   4.831998050213e-01   4.380069077015e-01   3.079994916916e-01   2.910952270031e-01   2.566199302673e-01   6.759505271912e-01   8.439146280289e-01 
  9.085342288017e-01   0.000000000000e+00   0.000000000000e+00   4.961445331573e-01   4.585761129856e-01   5.258381366730e-01   4.873184263706e-01   5.346563458443e-01   5.427393913269e-01 
  5.241258144379e-01   5.331116318703e-01   4.992482066154e-01   4.469795227051e-01   4.523172378540e-01   3.899129629135e-01   4.669107794762e-01   5.221070647240e-01   2.826848924160e-01 
  2.167418599129e-01   3.054441511631e-01   3.789728581905e-01   0.000000000000e+00   0.000000000000e+00   4.927969872952e-01   4.938724935055e-01   5.148566365242e-01   4.973040819168e-01 
  5.085141062737e-01   4.653503596783e-01   4.889831244946e-01   5.025948882103e-01   5.360022187233e-01   5.829885005951e-01   5.480217933655e-01   4.922430217266e-01   5.220488309860e-01 
  3.446804285049e-01   4.663996994495e-01   4.761110842228e-01   6.620362401009e-01   7.344274520874e-01   0.000000000000e+00   0.000000000000e+00   5.475925803185e-01   4.720748364925e-01 
  4.805430471897e-01   4.985798597336e-01   5.323894619942e-01   5.159384012222e-01   5.238044857979e-01   5.134696960449e-01   5.244825482368e-01   4.594196379185e-01   4.421741366386e-01 
  4.658071994781e-01   5.102014541626e-01   5.355759859085e-01   5.411120653152e-01   5.133283138275e-01   5.622840523720e-01   6.061758399010e-01   0.000000000000e+00   0.000000000000e+00 
  5.140526890755e-01   4.777631461620e-01   4.312887787819e-01   5.013262033463e-01   4.580745995045e-01   4.863775670528e-01   4.702987074852e-01   4.348082840443e-01   4.586394131184e-01 
  5.266154408455e-01   5.648391246796e-01   5.631982684135e-01   5.319427251816e-01   4.642668962479e-01   5.275871157646e-01   5.812780857086e-01   5.045913457870e-01   6.247765421867e-01 
  0.000000000000e+00   0.000000000000e+00   4.475169777870e-01   4.069360196590e-01   5.033281445503e-01   5.397255420685e-01   5.282018184662e-01   5.241776704788e-01   5.039042830467e-01 
  5.257571339607e-01   5.353798270226e-01   4.875124692917e-01   4.485951662064e-01   4.985429942608e-01   4.477651119232e-01   4.698253870010e-01   4.643358886242e-01   4.847117662430e-01 
  6.386331915855e-01   4.453390538692e-01   0.000000000000e+00   0.000000000000e+00   5.768426060677e-01   4.799002110958e-01   4.611080586910e-01   4.430765509605e-01   4.670955240726e-01 
  5.196671485901e-01   4.687013030052e-01   4.587498605251e-01   4.550308287144e-01   5.065659880638e-01   5.716518759727e-01   5.606498718262e-01   6.310906410217e-01   6.095005869865e-01 
  6.105169057846e-01   5.635749101639e-01   6.253481507301e-01   4.927018880844e-01   0.000000000000e+00   0.000000000000e+00   5.005137920380e-01   3.573092818260e-01   5.562803745270e-01 
  5.781015157700e-01   5.880804061890e-01   5.804204344749e-01   5.903592109680e-01   5.792519450188e-01   5.558459162712e-01   5.221514701843e-01   5.600373148918e-01   5.490427017212e-01 
  5.807017087936e-01   5.252109766006e-01   4.572373926640e-01   5.082234144211e-01   5.629165768623e-01   4.456061720848e-01   0.000000000000e+00   0.000000000000e+00   5.208181142807e-01 
  4.756411910057e-01   5.433501601219e-01   5.316485762596e-01   5.390374064445e-01   5.474806427956e-01   5.269895792007e-01   4.674359560013e-01   4.864466190338e-01   4.753944873810e-01 
  4.660850167274e-01   5.300449132919e-01   5.683654546738e-01   6.411889195442e-01   6.734737753868e-01   5.875297784805e-01   5.896475315094e-01   4.826754033566e-01   0.000000000000e+00 
  0.000000000000e+00   4.771269559860e-01   4.516441524029e-01   5.642780065536e-01   5.672098994255e-01   5.803119540215e-01   5.738158822060e-01   4.904735386372e-01   4.596475064754e-01 
  3.976315259933e-01   4.407206177711e-01   5.579024553299e-01   6.069510579109e-01   6.610075235367e-01   6.552824378014e-01   5.633104443550e-01   4.987182319164e-01   5.203732848167e-01 
  5.226278305054e-01   0.000000000000e+00   0.000000000000e+00   6.389937996864e-01   5.756307840347e-01   6.084918379784e-01   6.581403017044e-01   6.218420863152e-01   6.616559028625e-01 
  5.595171451569e-01   5.443093776703e-01   4.797991812229e-01   4.135782122612e-01   4.288364350796e-01   4.523310065269e-01   4.438872337341e-01   4.803797900677e-01   5.935639739037e-01 
  4.996614754200e-01   5.812392234802e-01   5.771811008453e-01   0.000000000000e+00   0.000000000000e+00   7.099435329437e-01   6.846078038216e-01   7.236148715019e-01   7.302592992783e-01 
  7.370998263359e-01   6.632893681526e-01   5.784172415733e-01   5.070544481277e-01   4.296200275421e-01   3.770861923695e-01   3.602554798126e-01   3.381867706776e-01   3.535577654839e-01 
  4.051053822041e-01   4.589897692204e-01   4.897522330284e-01   4.186300337315e-01   3.711639046669e-01   0.000000000000e+00   0.000000000000e+00   5.070258378983e-01   5.072377324104e-01 
  4.714425504208e-01   4.856698215008e-01   5.060200095177e-01   5.302925705910e-01   5.016685128212e-01   5.186749100685e-01   4.314786195755e-01   4.267261624336e-01   5.314933061600e-01 
  5.291495919228e-01   5.544499754906e-01   6.398057937622e-01   5.883021950722e-01   5.882550477982e-01   5.800488591194e-01   6.462544202805e-01   0.000000000000e+00   0.000000000000e+00 
  6.352130174637e-01   6.570481657982e-01   5.486737489700e-01   4.731771945953e-01   4.880808591843e-01   3.808559775352e-01   4.372139275074e-01   4.893516302109e-01   3.508328199387e-01 
  4.112039506435e-01  -1.486082673073e-01   2.192600518465e-01   4.498007297516e-01   7.795954346657e-01   6.027873754501e-01   5.838035941124e-01   6.141594052315e-01   5.327488183975e-01 
  0.000000000000e+00   0.000000000000e+00   0.000000000000e+00   0.000000000000e+00   0.000000000000e+00   0.000000000000e+00   0.000000000000e+00   0.000000000000e+00   0.000000000000e+00 
  0.000000000000e+00   0.000000000000e+00   0.000000000000e+00   0.000000000000e+00   0.000000000000e+00   0.000000000000e+00   0.000000000000e+00   0.000000000000e+00   0.000000000000e+00 
  0.000000000000e+00   0.000000000000e+00   0.000000000000e+00   0.000000000000e+00   0.000000000000e+00   0.000000000000e+00   0.000000000000e+00   0.000000000000e+00   0.000000000000e+00 
  0.000000000000e+00   0.000000000000e+00   0.000000000000e+00   0.000000000000e+00   0.000000000000e+00   0.000000000000e+00   0.000000000000e+00   0.000000000000e+00   0.000000000000e+00 
  0.000000000000e+00   0.000000000000e+00   0.000000000000e+00   0.000000000000e+00   0.000000000000e+00   0.000000000000e+00   3.075442612171e-01   2.811149954796e-01   2.835795879364e-01 
  2.958371639252e-01   3.262510299683e-01   3.326849043369e-01   3.826228678226e-01   3.421685993671e-01   3.617383539677e-01   3.074146509171e-01   2.868010699749e-01   2.886209189892e-01 
  2.948126494884e-01   2.928928136826e-01   2.933149337769e-01   3.000743389130e-01   2.927624881268e-01   3.457342088223e-01   0.000000000000e+00   0.000000000000e+00   2.831070721149e-01 
  2.680363953114e-01   2.766341567039e-01   2.771423757076e-01   3.791787028313e-01   4.321986734867e-01   3.555205166340e-01   2.819683253765e-01   2.399060726166e-01   2.862784564495e-01 
  2.856631875038e-01   2.961468994617e-01   3.176054954529e-01   3.351620435715e-01   3.019644618034e-01   2.675206959248e-01   2.494248002768e-01   3.093953430653e-01   0.000000000000e+00 
  0.000000000000e+00   3.050617575645e-01   2.640431821346e-01   2.356483191252e-01   1.967901140451e-01   1.986179351807e-01   2.119121402502e-01   8.712791651487e-02   2.816151380539e-01 
  2.956899404526e-01   2.602714002132e-01   2.736338973045e-01   2.668117880821e-01   2.993339598179e-01   3.090706765652e-01   2.500806748867e-01   3.305216133595e-01   2.780302762985e-01 
  3.529695570469e-01   0.000000000000e+00   0.000000000000e+00   2.051873207092e-01   2.120999842882e-01   2.026151865721e-01   2.182776778936e-01   1.542560458183e-01   3.021379411221e-01 
  2.226131856441e-01   2.380813509226e-01   2.060386091471e-01   2.144197821617e-01   2.230123877525e-01   1.917465925217e-01   1.562324017286e-01   1.606105118990e-01   3.422959744930e-01 
  3.302301764488e-01   2.684993445873e-01   3.985724449158e-01   0.000000000000e+00   0.000000000000e+00   2.502612769604e-01   2.055154144764e-01   2.370894402266e-01   2.380163520575e-01 
  2.165571004152e-01   1.244692504406e-01   2.362290322781e-01   2.217574268579e-01   2.436315417290e-01   2.095384448767e-01   2.179123163223e-01   1.863759607077e-01   3.084429502487e-01 
  3.926336169243e-01   2.116067707539e-01   3.615297377110e-01   4.367353320122e-01   4.183737337589e-01   0.000000000000e+00   0.000000000000e+00   3.342037498951e-01   2.625193595886e-01 
  2.141341865063e-01   2.219437211752e-01   1.846456974745e-01   1.911697536707e-01   2.247412651777e-01   2.565872669220e-01   2.697567939758e-01   2.923173606396e-01   2.226535826921e-01 
  1.925508528948e-01   1.789231598377e-01   1.116695627570e-01   2.789984345436e-01   3.034233152866e-01  -1.036271005869e-01  -1.167337074876e-01   0.000000000000e+00   0.000000000000e+00 