# vtk DataFile Version 2.0
Written using VisIt writer
ASCII
DATASET RECTILINEAR_GRID
DIMENSIONS 20 20 20
X_COORDINATES 20 float
  0.000000000000e+00   1.000000000000e+00   2.000000000000e+00   3.000000000000e+00   4.000000000000e+00   5.000000000000e+00   6.000000000000e+00   7.000000000000e+00   8.000000000000e+00 
  9.000000000000e+00   1.000000000000e+01   1.100000000000e+01   1.200000000000e+01   1.300000000000e+01   1.400000000000e+01   1.500000000000e+01   1.600000000000e+01   1.700000000000e+01 
  1.800000000000e+01   1.900000000000e+01 
Y_COORDINATES 20 float
  0.000000000000e+00   1.000000000000e+00   2.000000000000e+00   3.000000000000e+00   4.000000000000e+00   5.000000000000e+00   6.000000000000e+00   7.000000000000e+00   8.000000000000e+00 
  9.000000000000e+00   1.000000000000e+01   1.100000000000e+01   1.200000000000e+01   1.300000000000e+01   1.400000000000e+01   1.500000000000e+01   1.600000000000e+01   1.700000000000e+01 
  1.800000000000e+01   1.900000000000e+01 
Z_COORDINATES 20 float
  0.000000000000e+00   1.000000000000e+00   2.000000000000e+00   3.000000000000e+00   4.000000000000e+00   5.000000000000e+00   6.000000000000e+00   7.000000000000e+00   8.000000000000e+00 
  9.000000000000e+00   1.000000000000e+01   1.100000000000e+01   1.200000000000e+01   1.300000000000e+01   1.400000000000e+01   1.500000000000e+01   1.600000000000e+01   1.700000000000e+01 
  1.800000000000e+01   1.900000000000e+01 
CELL_DATA 6859
POINT_DATA 8000
SCALARS pressure float
LOOKUP_TABLE default
  0.000000000000e+00   0.000000000000e+00   0.000000000000e+00   0.000000000000e+00   0.000000000000e+00   0.000000000000e+00   0.000000000000e+00   0.000000000000e+00   0.000000000000e+00 
  0.000000000000e+00   0.000000000000e+00   0.000000000000e+00   0.000000000000e+00   0.000000000000e+00   0.000000000000e+00   0.000000000000e+00   0.000000000000e+00   0.000000000000e+00 
  0.000000000000e+00   0.000000000000e+00   0.000000000000e+00   0.000000000000e+00   0.000000000000e+00   0.000000000000e+00   0.000000000000e+00   0.000000000000e+00   0.000000000000e+00 
  0.000000000000e+00   0.000000000000e+00   0.000000000000e+00   0.000000000000e+00   0.000000000000e+00   0.000000000000e+00   0.000000000000e+00   0.000000000000e+00   0.000000000000e+00 
  0.000000000000e+00   0.000000000000e+00   0.000000000000e+00   0.000000000000e+00   0.000000000000e+00   0.000000000000e+00   0.000000000000e+00   0.000000000000e+00   0.000000000000e+00 
  0.000000000000e+00   0.000000000000e+00   0.000000000000e+00   0.000000000000e+00   0.000000000000e+00   0.000000000000e+00   0.000000000000e+00   0.000000000000e+00   0.000000000000e+00 
  0.000000000000e+00   0.000000000000e+00   0.000000000000e+00   0.000000000000e+00   0.000000000000e+00   0.000000000000e+00   0.000000000000e+00   0.000000000000e+00   0.000000000000e+00 
  0.000000000000e+00   0.000000000000e+00   0.000000000000e+00   0.000000000000e+00   0.000000000000e+00   0.000000000000e+00   0.000000000000e+00   0.000000000000e+00   0.000000000000e+00 
  0.000000000000e+00   0.000000000000e+00   0.000000000000e+00   0.000000000000e+00   0.000000000000e+00   0.000000000000e+00   0.000000000000e+00   0.000000000000e+00   0.000000000000e+00 
  0.000000000000e+00   0.000000000000e+00   0.000000000000e+00   0.000000000000e+00   0.000000000000e+00   0.000000000000e+00   0.000000000000e+00   0.000000000000e+00   0.000000000000e+00 
  0.000000000000e+00   0.000000000000e+00   0.000000000000e+00   0.000000000000e+00   0.000000000000e+00   0.000000000000e+00   0.000000000000e+00   0.000000000000e+00   0.000000000000e+00 
  0.000000000000e+00   0.000000000000e+00   0.000000000000e+00   0.000000000000e+00   0.000000000000e+00   0.000000000000e+00   0.000000000000e+00   0.000000000000e+00   0.000000000000e+00 
  0.000000000000e+00   0.000000000000e+00   0.000000000000e+00   0.000000000000e+00   0.000000000000e+00   0.000000000000e+00   0.000000000000e+00   0.000000000000e+00   0.000000000000e+00 
  0.000000000000e+00   0.000000000000e+00   0.000000000000e+00   0.000000000000e+00   0.000000000000e+00   0.000000000000e+00   0.000000000000e+00   0.000000000000e+00   0.000000000000e+00 
  0.000000000000e+00   0.000000000000e+00   0.000000000000e+00   0.000000000000e+00   0.000000000000e+00   0.000000000000e+00   0.000000000000e+00   0.000000000000e+00   0.000000000000e+00 
  0.000000000000e+00   0.000000000000e+00   0.000000000000e+00   0.000000000000e+00   0.000000000000e+00   0.000000000000e+00   0.000000000000e+00   0.000000000000e+00   0.000000000000e+00 
  0.000000000000e+00   0.000000000000e+00   0.000000000000e+00   0.000000000000e+00   0.000000000000e+00   0.000000000000e+00   0.000000000000e+00   0.000000000000e+00   0.000000000000e+00 
  0.000000000000e+00   0.000000000000e+00   0.000000000000e+00   0.000000000000e+00   0.000000000000e+00   0.000000000000e+00   0.000000000000e+00   0.000000000000e+00   0.000000000000e+00 
  0.000000000000e+00   0.000000000000e+00   0.000000000000e+00   0.000000000000e+00   0.000000000000e+00   0.000000000000e+00   0.000000000000e+00   0.000000000000e+00   0.000000000000e+00 
  0.000000000000e+00   0.000000000000e+00   0.000000000000e+00   0.000000000000e+00   0.000000000000e+00   0.000000000000e+00   0.000000000000e+00   0.000000000000e+00   0.000000000000e+00 
  0.000000000000e+00   0.000000000000e+00   0.000000000000e+00   0.000000000000e+00   0.000000000000e+00   0.000000000000e+00   0.000000000000e+00   0.000000000000e+00   0.000000000000e+00 
  0.000000000000e+00   0.000000000000e+00   0.000000000000e+00   0.000000000000e+00   0.000000000000e+00   0.000000000000e+00   0.000000000000e+00   0.000000000000e+00   0.000000000000e+00 
  0.000000000000e+00   0.000000000000e+00   0.000000000000e+00   0.000000000000e+00   0.000000000000e+00   0.000000000000e+00   0.000000000000e+00   0.000000000000e+00   0.000000000000e+00 
  0.000000000000e+00   0.000000000000e+00   0.000000000000e+00   0.000000000000e+00   0.000000000000e+00   0.000000000000e+00   0.000000000000e+00   0.000000000000e+00   0.000000000000e+00 
  0.000000000000e+00   0.000000000000e+00   0.000000000000e+00   0.000000000000e+00   0.000000000000e+00   0.000000000000e+00   0.000000000000e+00   0.000000000000e+00   0.000000000000e+00 
  0.000000000000e+00   0.000000000000e+00   0.000000000000e+00   0.000000000000e+00   0.000000000000e+00   0.000000000000e+00   0.000000000000e+00   0.000000000000e+00   0.000000000000e+00 
  0.000000000000e+00   0.000000000000e+00   0.000000000000e+00   0.000000000000e+00   0.000000000000e+00   0.000000000000e+00   0.000000000000e+00   0.000000000000e+00   0.000000000000e+00 
  0.000000000000e+00   0.000000000000e+00   0.000000000000e+00   0.000000000000e+00   0.000000000000e+00   0.000000000000e+00   0.000000000000e+00   0.000000000000e+00   0.000000000000e+00 
  0.000000000000e+00   0.000000000000e+00   0.000000000000e+00   0.000000000000e+00   0.000000000000e+00   0.000000000000e+00   0.000000000000e+00   0.000000000000e+00   0.000000000000e+00 
  0.000000000000e+00   0.000000000000e+00   0.000000000000e+00   0.000000000000e+00   0.000000000000e+00   0.000000000000e+00   0.000000000000e+00   0.000000000000e+00   0.000000000000e+00 
  0.000000000000e+00   0.000000000000e+00   0.000000000000e+00   0.000000000000e+00   0.000000000000e+00   0.000000000000e+00   0.000000000000e+00   0.000000000000e+00   0.000000000000e+00 
  0.000000000000e+00   0.000000000000e+00   0.000000000000e+00   0.000000000000e+00   0.000000000000e+00   0.000000000000e+00   0.000000000000e+00   0.000000000000e+00   0.000000000000e+00 
  0.000000000000e+00   0.000000000000e+00   0.000000000000e+00   0.000000000000e+00   0.000000000000e+00   0.000000000000e+00   0.000000000000e+00   0.000000000000e+00   0.000000000000e+00 
  0.000000000000e+00   0.000000000000e+00   0.000000000000e+00   0.000000000000e+00   0.000000000000e+00   0.000000000000e+00   0.000000000000e+00   0.000000000000e+00   0.000000000000e+00 
  0.000000000000e+00   0.000000000000e+00   0.000000000000e+00   0.000000000000e+00   0.000000000000e+00   0.000000000000e+00   0.000000000000e+00   0.000000000000e+00   0.000000000000e+00 
  0.000000000000e+00   0.000000000000e+00   0.000000000000e+00   0.000000000000e+00   0.000000000000e+00   0.000000000000e+00   0.000000000000e+00   0.000000000000e+00   0.000000000000e+00 
  0.000000000000e+00   0.000000000000e+00   0.000000000000e+00   0.000000000000e+00   0.000000000000e+00   0.000000000000e+00   0.000000000000e+00   0.000000000000e+00   0.000000000000e+00 
  0.000000000000e+00   0.000000000000e+00   0.000000000000e+00   0.000000000000e+00   0.000000000000e+00   0.000000000000e+00   0.000000000000e+00   0.000000000000e+00   0.000000000000e+00 
  0.000000000000e+00   0.000000000000e+00   0.000000000000e+00   0.000000000000e+00   0.000000000000e+00   0.000000000000e+00   0.000000000000e+00   0.000000000000e+00   0.000000000000e+00 
  0.000000000000e+00   0.000000000000e+00   0.000000000000e+00   0.000000000000e+00   0.000000000000e+00   0.000000000000e+00   0.000000000000e+00   0.000000000000e+00   0.000000000000e+00 
  0.000000000000e+00   0.000000000000e+00   0.000000000000e+00   0.000000000000e+00   0.000000000000e+00   0.000000000000e+00   0.000000000000e+00   0.000000000000e+00   0.000000000000e+00 
  0.000000000000e+00   0.000000000000e+00   0.000000000000e+00   0.000000000000e+00   0.000000000000e+00   0.000000000000e+00   0.000000000000e+00   0.000000000000e+00   0.000000000000e+00 
  0.000000000000e+00   0.000000000000e+00   0.000000000000e+00   0.000000000000e+00   0.000000000000e+00   0.000000000000e+00   0.000000000000e+00   0.000000000000e+00   0.000000000000e+00 
  0.000000000000e+00   0.000000000000e+00   0.000000000000e+00   0.000000000000e+00   0.000000000000e+00   0.000000000000e+00   0.000000000000e+00   0.000000000000e+00   0.000000000000e+00 
  0.000000000000e+00   0.000000000000e+00   0.000000000000e+00   0.000000000000e+00   0.000000000000e+00   0.000000000000e+00   0.000000000000e+00   0.000000000000e+00   0.000000000000e+00 
  0.000000000000e+00   0.000000000000e+00   0.000000000000e+00   0.000000000000e+00   0.000000000000e+00   0.000000000000e+00   0.000000000000e+00   0.000000000000e+00   0.000000000000e+00 
  0.000000000000e+00   0.000000000000e+00   0.000000000000e+00   0.000000000000e+00   0.000000000000e+00   0.000000000000e+00   0.000000000000e+00   8.164817810059e+00   8.457498550415e+00 
  9.240883827209e+00   1.014959716797e+01   9.277362823486e+00   8.386583328247e+00   7.813339710236e+00   7.439013957977e+00   7.150211811066e+00   7.005071163177e+00   7.187574863434e+00 
  6.643144607544e+00   6.559475898743e+00   6.577716350555e+00   6.458761215210e+00   6.482903957367e+00   6.466993808746e+00   6.477967262268e+00   0.000000000000e+00   0.000000000000e+00 
  8.186156272888e+00   8.584613800049e+00   9.901721000671e+00   1.131412124634e+01   9.656459808350e+00   8.477728843689e+00   7.881327629089e+00   7.465685367584e+00   7.175248146057e+00 
  7.241932392120e+00   7.808239936829e+00   6.998325824738e+00   6.962615489960e+00   7.017091751099e+00   6.483670711517e+00   6.466966152191e+00   6.467967987061e+00   6.486634731293e+00 
  0.000000000000e+00   0.000000000000e+00   8.054631233215e+00   8.265845298767e+00   8.764971733093e+00   9.277408599854e+00   8.706363677979e+00   8.122747421265e+00   7.752658843994e+00 
  7.465200424194e+00   7.274844169617e+00   7.127398967743e+00   7.115715503693e+00   6.788858413696e+00   6.640865802765e+00   6.640107631683e+00   6.660832881927e+00   6.647642612457e+00 
  6.624345302582e+00   6.641394138336e+00   0.000000000000e+00   0.000000000000e+00   7.849824905396e+00   7.990609169006e+00   8.199173927307e+00   8.418966293335e+00   8.250077247620e+00 
  7.966720581055e+00   7.755393981934e+00   7.544579982758e+00   7.329092502594e+00   7.177110195160e+00   7.083332061768e+00   6.933349132538e+00   6.819997787476e+00   6.742953777313e+00 
  6.616219997406e+00   6.594313621521e+00   6.567291259766e+00   6.595973968506e+00   0.000000000000e+00   0.000000000000e+00   7.516776084900e+00   7.565281391144e+00   7.697173595428e+00 
  7.801018714905e+00   7.799327373505e+00   7.701242446899e+00   7.598380565643e+00   7.464976310730e+00   7.412021160126e+00   7.308296203613e+00   7.207058429718e+00   7.133257389069e+00 
  7.051550865173e+00   6.942641258240e+00   6.835098266602e+00   6.768282413483e+00   6.718973636627e+00   6.756747722626e+00   0.000000000000e+00   0.000000000000e+00   7.150531768799e+00 
  7.211853027344e+00   7.330344676971e+00   7.498141288757e+00   7.626335144043e+00   7.663688182831e+00   7.652550220490e+00   7.563536167145e+00   7.431188583374e+00   7.296898841858e+00 
  7.240171432495e+00   7.210999965668e+00   7.194745540619e+00   7.137496948242e+00   7.045001983643e+00   6.939249992371e+00   6.829060554504e+00   6.859187602997e+00   0.000000000000e+00 
  0.000000000000e+00   6.765952587128e+00   6.846471786499e+00   7.091268062592e+00   7.398112297058e+00   7.716620445251e+00   7.794762134552e+00   7.744748115540e+00   7.712866783142e+00 
  7.617495536804e+00   7.511611938477e+00   7.413816452026e+00   7.339485645294e+00   7.240922927856e+00   7.161558628082e+00   7.015667915344e+00   6.904186725616e+00   6.815961360931e+00 
  6.886724472046e+00   0.000000000000e+00   0.000000000000e+00   6.134500503540e+00   6.161781787872e+00   6.703901767731e+00   7.239875793457e+00   7.678149223328e+00   7.914769649506e+00 
  7.970218181610e+00   7.906448364258e+00   7.768105983734e+00   7.686970710754e+00   7.542723178864e+00   7.578089714050e+00   7.534679412842e+00   7.546997070312e+00   7.360441684723e+00 
  7.217281341553e+00   7.105027675629e+00   7.167389392853e+00   0.000000000000e+00   0.000000000000e+00   5.227064609528e+00   4.716609954834e+00   6.287676811218e+00   7.520809173584e+00 
  8.241795539856e+00   8.545907974243e+00   8.605271339417e+00   8.527407646179e+00   8.279590606689e+00   8.158671379089e+00   7.999964237213e+00   7.994797706604e+00   8.022809982300e+00 
  7.798662185669e+00   7.674893379211e+00   7.530182838440e+00   7.425544738770e+00   7.532586097717e+00   0.000000000000e+00   0.000000000000e+00   4.278451919556e+00   6.065813064575e+00 
  5.767977714539e+00   7.966197013855e+00   9.124235153198e+00   9.501696586609e+00   9.469723701477e+00   9.214608192444e+00   8.771512985229e+00   8.357074737549e+00   8.173992156982e+00 
  8.090295791626e+00   7.963043212891e+00   8.038616180420e+00   7.947196006775e+00   7.883714675903e+00   7.770116806030e+00   7.758879184723e+00   0.000000000000e+00   0.000000000000e+00 
  6.166800498962e+00   5.802153110504e+00   7.888588905334e+00   1.023766613007e+01   1.204814147949e+01   1.180554676056e+01   1.163479328156e+01   1.109370231628e+01   9.878625869751e+00 
  9.016056060791e+00   8.593463897705e+00   8.385353088379e+00   8.319940567017e+00   8.320920944214e+00   8.376372337341e+00   8.413168907166e+00   8.490483283997e+00   8.491047859192e+00 
  0.000000000000e+00   0.000000000000e+00   7.990586280823e+00   8.349767684937e+00   9.841468811035e+00   1.260843276978e+01   1.528421974182e+01   1.404811000824e+01   1.374778079987e+01 
  1.282092857361e+01   1.074627304077e+01   9.299243927002e+00   8.759041786194e+00   8.596914291382e+00   8.639169692993e+00   8.709607124329e+00   8.856218338013e+00   9.040625572205e+00 
  9.062919616699e+00   8.929832458496e+00   0.000000000000e+00   0.000000000000e+00   9.354815483093e+00   9.684589385986e+00   1.033924865723e+01   1.163525199890e+01   1.277903842926e+01 
  1.206247425079e+01   1.171046924591e+01   1.108100414276e+01   9.836389541626e+00   9.051284790039e+00   8.744971275330e+00   8.737600326538e+00   8.909640312195e+00   9.256518363953e+00 
  9.737738609314e+00   1.001672077179e+01   9.961041450500e+00   9.717793464661e+00   0.000000000000e+00   0.000000000000e+00   1.047541332245e+01   1.088580799103e+01   1.167498207092e+01 
  1.225015735626e+01   1.231149482727e+01   1.151870822906e+01   1.083950710297e+01   1.007063865662e+01   9.378335952759e+00   8.892691612244e+00   8.692188262939e+00   8.824090957642e+00 
  9.108708381653e+00   9.733604431152e+00   1.056643295288e+01   1.149791240692e+01   1.117604064941e+01   1.080028820038e+01   0.000000000000e+00   0.000000000000e+00   1.160372638702e+01 
  1.228008651733e+01   1.334412574768e+01   1.335599422455e+01   1.281298923492e+01   1.099880886078e+01   1.002520656586e+01   9.324234008789e+00   8.747977256775e+00   8.309837341309e+00 
  8.325877189636e+00   8.519757270813e+00   9.113822937012e+00   9.973232269287e+00   1.178314590454e+01   1.358251762390e+01   1.239486598969e+01   1.161738395691e+01   0.000000000000e+00 
  0.000000000000e+00   1.197120666504e+01   1.327166843414e+01   1.603527450562e+01   1.581383514404e+01   1.342865180969e+01   1.094822597504e+01   9.519805908203e+00   8.576227188110e+00 
  7.841394901276e+00   7.354428291321e+00   7.794278621674e+00   8.316498756409e+00   9.063673973083e+00   9.902212142944e+00   1.097933673859e+01   1.202364158630e+01   1.187548351288e+01 
  1.134902572632e+01   0.000000000000e+00   0.000000000000e+00   1.183213806152e+01   1.240607833862e+01   1.352549648285e+01   1.329801082611e+01   1.183677577972e+01   1.025540065765e+01 
  9.022194862366e+00   7.906119823456e+00   6.727047920227e+00   5.540154933929e+00   6.717032432556e+00   7.879919052124e+00   8.895609855652e+00   9.858742713928e+00   1.074560260773e+01 
  1.141299533844e+01   1.145417308807e+01   1.127390098572e+01   0.000000000000e+00   0.000000000000e+00   1.135717582703e+01   1.161215019226e+01   1.186977672577e+01   1.165154075623e+01 
  1.076653194427e+01   9.709511756897e+00   8.603888511658e+00   7.267756938934e+00   5.117166519165e+00   5.800724983215e+00   5.135107994080e+00   7.254210472107e+00   8.390169143677e+00 
  9.260933876038e+00   1.006501674652e+01   1.065576553345e+01   1.086744308472e+01   1.097471046448e+01   0.000000000000e+00   0.000000000000e+00   0.000000000000e+00   0.000000000000e+00 
  0.000000000000e+00   0.000000000000e+00   0.000000000000e+00   0.000000000000e+00   0.000000000000e+00   0.000000000000e+00   0.000000000000e+00   0.000000000000e+00   0.000000000000e+00 
  0.000000000000e+00   0.000000000000e+00   0.000000000000e+00   0.000000000000e+00   0.000000000000e+00   0.000000000000e+00   0.000000000000e+00   0.000000000000e+00   0.000000000000e+00 
  0.000000000000e+00   0.000000000000e+00   0.000000000000e+00   0.000000000000e+00   0.000000000000e+00   0.000000000000e+00   0.000000000000e+00   0.000000000000e+00   0.000000000000e+00 
  0.000000000000e+00   0.000000000000e+00   0.000000000000e+00   0.000000000000e+00   0.000000000000e+00   0.000000000000e+00   0.000000000000e+00   0.000000000000e+00   0.000000000000e+00 
  0.000000000000e+00   0.000000000000e+00   6.803232192993e+00   7.005340576172e+00   7.429424762726e+00   7.875774860382e+00   7.506237506866e+00   7.016725063324e+00   6.589476108551e+00 
  6.257529735565e+00   6.005888462067e+00   5.829574108124e+00   5.780376911163e+00   5.526906490326e+00   5.383568286896e+00   5.362353324890e+00   5.339463710785e+00   5.354370117188e+00 
  5.335978031158e+00   5.369830608368e+00   0.000000000000e+00   0.000000000000e+00   6.836544513702e+00   7.054578304291e+00   7.662666320801e+00   8.291296958923e+00   7.663627147675e+00 
  7.078120231628e+00   6.643393039703e+00   6.312559604645e+00   6.038209438324e+00   5.908916473389e+00   5.973213672638e+00   5.521286964417e+00   5.369965076447e+00   5.395358562469e+00 
  5.300088405609e+00   5.338798046112e+00   5.339994907379e+00   5.372134208679e+00   0.000000000000e+00   0.000000000000e+00   6.817993640900e+00   6.952207088470e+00   7.239467620850e+00 
  7.492087364197e+00   7.203622341156e+00   6.903934955597e+00   6.573310375214e+00   6.315196514130e+00   6.078396320343e+00   5.931480407715e+00   5.814969062805e+00   5.603089809418e+00 
  5.480161666870e+00   5.458747863770e+00   5.499448299408e+00   5.476884841919e+00   5.460238933563e+00   5.500758647919e+00   0.000000000000e+00   0.000000000000e+00   6.750576019287e+00 
  6.801617622375e+00   6.913568496704e+00   7.009058952332e+00   6.864268302917e+00   6.694723606110e+00   6.604013442993e+00   6.380962848663e+00   6.193976879120e+00   6.053753852844e+00 
  5.907127857208e+00   5.794031620026e+00   5.708700656891e+00   5.649638175964e+00   5.582916259766e+00   5.566538333893e+00   5.527023792267e+00   5.562070846558e+00   0.000000000000e+00 
  0.000000000000e+00   6.528504848480e+00   6.507494926453e+00   6.610532283783e+00   6.632600784302e+00   6.721561908722e+00   6.668666362762e+00   6.716544151306e+00   6.494291782379e+00 
  6.356894016266e+00   6.190403938293e+00   6.037141323090e+00   5.975641727448e+00   5.892851352692e+00   5.784401893616e+00   5.678392410278e+00   5.609797954559e+00   5.558653354645e+00 
  5.639413833618e+00   0.000000000000e+00   0.000000000000e+00   6.214662551880e+00   6.190944671631e+00   6.309364318848e+00   6.435726165771e+00   6.663141727448e+00   6.617794036865e+00 
  6.530705928802e+00   6.402637481689e+00   6.350405693054e+00   6.273756504059e+00   6.167489051819e+00   6.115046977997e+00   6.091101646423e+00   6.017301082611e+00   5.904406547546e+00 
  5.807412147522e+00   5.699564933777e+00   5.744582176208e+00   0.000000000000e+00   0.000000000000e+00   5.779364109039e+00   5.859370708466e+00   6.036042213440e+00   6.249013900757e+00 
  6.881533622742e+00   6.903527259827e+00   6.600237846375e+00   6.581644058228e+00   6.532296657562e+00   6.382080554962e+00   6.275609016418e+00   6.262592792511e+00   6.227983951569e+00 
  6.086287021637e+00   5.911895751953e+00   5.811112880707e+00   5.691264629364e+00   5.766423225403e+00   0.000000000000e+00   0.000000000000e+00   5.275306224823e+00   5.465066909790e+00 
  5.860313892365e+00   6.215056419373e+00   6.375868320465e+00   6.632573127747e+00   6.831811904907e+00   6.851639747620e+00   6.667912006378e+00   6.579332351685e+00   6.531629562378e+00 
  6.445416927338e+00   6.606749534607e+00   6.401573181152e+00   6.127477645874e+00   6.002913951874e+00   5.873058795929e+00   5.958950042725e+00   0.000000000000e+00   0.000000000000e+00 
  4.775658130646e+00   4.851853370667e+00   5.625381469727e+00   6.418159961700e+00   6.986053943634e+00   7.248032569885e+00   7.284871578217e+00   7.209849834442e+00   7.058006763458e+00 
  6.920681476593e+00   6.809435844421e+00   6.785067558289e+00   6.999251842499e+00   7.007889270782e+00   6.613753795624e+00   6.317427635193e+00   6.288659572601e+00   6.321768760681e+00 
  0.000000000000e+00   0.000000000000e+00   4.481561660767e+00   4.179314136505e+00   5.717654228210e+00   6.932524681091e+00   7.704167366028e+00   8.031324386597e+00   8.071059226990e+00 
  7.867213249207e+00   7.506298542023e+00   7.180622577667e+00   7.015305995941e+00   6.783472537994e+00   6.743332862854e+00   6.998859405518e+00   6.920856475830e+00   6.666081428528e+00 
  6.580925941467e+00   6.586658477783e+00   0.000000000000e+00   0.000000000000e+00   5.701766967773e+00   5.851386547089e+00   6.950674057007e+00   8.391822814941e+00   9.533101081848e+00 
  9.517374992371e+00   9.457565307617e+00   9.090836524963e+00   8.300189018250e+00   7.701559543610e+00   7.367986202240e+00   7.206593513489e+00   7.183833122253e+00   7.065606594086e+00 
  7.203906536102e+00   7.258693218231e+00   7.390598773956e+00   7.378365516663e+00   0.000000000000e+00   0.000000000000e+00   7.009027004242e+00   7.357979297638e+00   8.280160903931e+00 
  9.719867706299e+00   1.101823425293e+01   1.062729167938e+01   1.040227413177e+01   9.849157333374e+00   8.712392807007e+00   7.856037139893e+00   7.513375759125e+00   7.417218685150e+00 
  7.489657402039e+00   7.630937576294e+00   7.784422874451e+00   7.872540473938e+00   8.000322341919e+00   7.650184631348e+00   0.000000000000e+00   0.000000000000e+00   8.229399681091e+00 
  8.501535415649e+00   8.955370903015e+00   9.635999679565e+00   1.017189407349e+01   9.857970237732e+00   9.533001899719e+00   9.067100524902e+00   8.319470405579e+00   7.835547447205e+00 
  7.611179828644e+00   7.594685077667e+00   7.764942169189e+00   8.077624320984e+00   8.548004150391e+00   8.879012107849e+00   8.821881294250e+00   8.496398925781e+00   0.000000000000e+00 
  0.000000000000e+00   9.154729843140e+00   9.513377189636e+00   1.029456901550e+01   1.066459178925e+01   1.035919475555e+01   9.738501548767e+00   9.181169509888e+00   8.564277648926e+00 
  8.031896591187e+00   7.610592365265e+00   7.529017448425e+00   7.607311248779e+00   8.019674301147e+00   8.578531265259e+00   9.844569206238e+00   1.101682186127e+01   1.027371311188e+01 
  9.476363182068e+00   0.000000000000e+00   0.000000000000e+00   1.018749713898e+01   1.118231391907e+01   1.280235576630e+01   1.289116001129e+01   1.143871212006e+01   9.713319778442e+00 
  8.731749534607e+00   8.082152366638e+00   7.605603694916e+00   7.243716239929e+00   7.496426105499e+00   7.634412288666e+00   8.482329368591e+00   9.545987129211e+00   1.227790737152e+01 
  1.475971794128e+01   1.206189250946e+01   1.045977687836e+01   0.000000000000e+00   0.000000000000e+00   1.053769397736e+01   1.280625534058e+01   1.703895187378e+01   1.696065139771e+01 
  1.344579792023e+01   1.014976024628e+01   8.347094535828e+00   7.445893764496e+00   6.885067939758e+00   6.591946601868e+00   7.187736511230e+00   7.324983596802e+00   7.960732460022e+00 
  8.909752845764e+00   1.043109703064e+01   1.210350990295e+01   1.108305931091e+01   1.029692935944e+01   0.000000000000e+00   0.000000000000e+00   1.019216918945e+01   1.089057445526e+01 
  1.256763076782e+01   1.232070159912e+01   1.058400726318e+01   8.952356338501e+00   7.776166439056e+00   6.877657413483e+00   6.154156684875e+00   5.705445766449e+00   6.305281162262e+00 
  7.077975273132e+00   7.892681598663e+00   8.791784286499e+00   9.775123596191e+00   1.058797168732e+01   1.044121074677e+01   1.013370895386e+01   0.000000000000e+00   0.000000000000e+00 
  9.672211647034e+00   9.760351181030e+00   1.018572902679e+01   1.016598987579e+01   9.197276115417e+00   8.229982376099e+00   7.291965484619e+00   6.236272335052e+00   5.229804039001e+00 
  4.125343322754e+00   5.333560943604e+00   6.503670215607e+00   7.411704540253e+00   8.172937393188e+00   8.939637184143e+00   9.494675636292e+00   9.598944664001e+00   9.612889289856e+00 
  0.000000000000e+00   0.000000000000e+00   0.000000000000e+00   0.000000000000e+00   0.000000000000e+00   0.000000000000e+00   0.000000000000e+00   0.000000000000e+00   0.000000000000e+00 
  0.000000000000e+00   0.000000000000e+00   0.000000000000e+00   0.000000000000e+00   0.000000000000e+00   0.000000000000e+00   0.000000000000e+00   0.000000000000e+00   0.000000000000e+00 
  0.000000000000e+00   0.000000000000e+00   0.000000000000e+00   0.000000000000e+00   0.000000000000e+00   0.000000000000e+00   0.000000000000e+00   0.000000000000e+00   0.000000000000e+00 
  0.000000000000e+00   0.000000000000e+00   0.000000000000e+00   0.000000000000e+00   0.000000000000e+00   0.000000000000e+00   0.000000000000e+00   0.000000000000e+00   0.000000000000e+00 
  0.000000000000e+00   0.000000000000e+00   0.000000000000e+00   0.000000000000e+00   0.000000000000e+00   0.000000000000e+00   5.058465957642e+00   5.184031486511e+00   5.373915195465e+00 
  5.549569606781e+00   5.535693168640e+00   5.347605705261e+00   5.062861442566e+00   4.798320770264e+00   4.605729579926e+00   4.510631084442e+00   4.385597705841e+00   4.217469215393e+00 
  4.112036705017e+00   4.051813125610e+00   4.002248287201e+00   3.939848423004e+00   3.906926155090e+00   3.965561151505e+00   0.000000000000e+00   0.000000000000e+00   5.233070850372e+00 
  5.356626510620e+00   5.524390697479e+00   5.695212841034e+00   5.622639179230e+00   5.440252304077e+00   5.212572574615e+00   5.042097568512e+00   4.767179489136e+00   4.599557876587e+00 
  4.442718982697e+00   4.273844242096e+00   4.154523849487e+00   4.096581459045e+00   4.075543880463e+00   4.063667297363e+00   4.042921543121e+00   4.089523792267e+00   0.000000000000e+00 
  0.000000000000e+00   5.391013622284e+00   5.441383361816e+00   5.489145755768e+00   5.567620277405e+00   5.511042594910e+00   5.358277320862e+00   5.373822212219e+00   5.043284416199e+00 
  4.815191268921e+00   4.720783710480e+00   4.564229011536e+00   4.432852268219e+00   4.336073398590e+00   4.279384136200e+00   4.247784614563e+00   4.208102703094e+00   4.181280612946e+00 
  4.227663993835e+00   0.000000000000e+00   0.000000000000e+00   5.434648036957e+00   5.397841930389e+00   5.444872856140e+00   5.443315505981e+00   5.347946643829e+00   5.680205345154e+00 
  5.749979496002e+00   5.196787834167e+00   4.955368518829e+00   4.880782604218e+00   4.708240509033e+00   4.553648948669e+00   4.473992824554e+00   4.416963100433e+00   4.375671863556e+00 
  4.355721473694e+00   4.332702159882e+00   4.389052391052e+00   0.000000000000e+00   0.000000000000e+00   5.526047706604e+00   5.424180984497e+00   5.435616016388e+00   5.403438091278e+00 
  5.431760311127e+00   5.394646167755e+00   5.810188770294e+00   5.283579826355e+00   4.969477176666e+00   4.905829429626e+00   4.766320705414e+00   4.742075443268e+00   4.680920600891e+00 
  4.601418495178e+00   4.526608943939e+00   4.476433277130e+00   4.440233707428e+00   4.504373550415e+00   0.000000000000e+00   0.000000000000e+00   5.409247398376e+00   5.277007102966e+00 
  5.217361927032e+00   5.217509746552e+00   5.470327854156e+00   5.521895408630e+00   5.525990486145e+00   5.360359191895e+00   5.465330123901e+00   5.194912433624e+00   4.995640277863e+00 
  4.875893592834e+00   4.819260120392e+00   4.728678226471e+00   4.621964931488e+00   4.541874408722e+00   4.472713947296e+00   4.531213760376e+00   0.000000000000e+00   0.000000000000e+00 