# vtk DataFile Version 2.0
Written using VisIt writer
ASCII
DATASET RECTILINEAR_GRID
DIMENSIONS 20 20 20
X_COORDINATES 20 float
  0.000000000000e+00   1.000000000000e+00   2.000000000000e+00   3.000000000000e+00   4.000000000000e+00   5.000000000000e+00   6.000000000000e+00   7.000000000000e+00   8.000000000000e+00 
  9.000000000000e+00   1.000000000000e+01   1.100000000000e+01   1.200000000000e+01   1.300000000000e+01   1.400000000000e+01   1.500000000000e+01   1.600000000000e+01   1.700000000000e+01 
  1.800000000000e+01   1.900000000000e+01 
Y_COORDINATES 20 float
  0.000000000000e+00   1.000000000000e+00   2.000000000000e+00   3.000000000000e+00   4.000000000000e+00   5.000000000000e+00   6.000000000000e+00   7.000000000000e+00   8.000000000000e+00 
  9.000000000000e+00   1.000000000000e+01   1.100000000000e+01   1.200000000000e+01   1.300000000000e+01   1.400000000000e+01   1.500000000000e+01   1.600000000000e+01   1.700000000000e+01 
  1.800000000000e+01   1.900000000000e+01 
Z_COORDINATES 20 float
  0.000000000000e+00   1.000000000000e+00   2.000000000000e+00   3.000000000000e+00   4.000000000000e+00   5.000000000000e+00   6.000000000000e+00   7.000000000000e+00   8.000000000000e+00 
  9.000000000000e+00   1.000000000000e+01   1.100000000000e+01   1.200000000000e+01   1.300000000000e+01   1.400000000000e+01   1.500000000000e+01   1.600000000000e+01   1.700000000000e+01 
  1.800000000000e+01   1.900000000000e+01 
CELL_DATA 6859
POINT_DATA 8000
SCALARS pressure float
LOOKUP_TABLE default
  0.000000000000e+00   0.000000000000e+00   0.000000000000e+00   0.000000000000e+00   0.000000000000e+00   0.000000000000e+00   0.000000000000e+00   0.000000000000e+00   0.000000000000e+00 
  0.000000000000e+00   0.000000000000e+00   0.000000000000e+00   0.000000000000e+00   0.000000000000e+00   0.000000000000e+00   0.000000000000e+00   0.000000000000e+00   0.000000000000e+00 
  0.000000000000e+00   0.000000000000e+00   0.000000000000e+00   0.000000000000e+00   0.000000000000e+00   0.000000000000e+00   0.000000000000e+00   0.000000000000e+00   0.000000000000e+00 
  0.000000000000e+00   0.000000000000e+00   0.000000000000e+00   0.000000000000e+00   0.000000000000e+00   0.000000000000e+00   0.000000000000e+00   0.000000000000e+00   0.000000000000e+00 
  0.000000000000e+00   0.000000000000e+00   0.000000000000e+00   0.000000000000e+00   0.000000000000e+00   0.000000000000e+00   0.000000000000e+00   0.000000000000e+00   0.000000000000e+00 
  0.000000000000e+00   0.000000000000e+00   0.000000000000e+00   0.000000000000e+00   0.000000000000e+00   0.000000000000e+00   0.000000000000e+00   0.000000000000e+00   0.000000000000e+00 
  0.000000000000e+00   0.000000000000e+00   0.000000000000e+00   0.000000000000e+00   0.000000000000e+00   0.000000000000e+00   0.000000000000e+00   0.000000000000e+00   0.000000000000e+00 
  0.000000000000e+00   0.000000000000e+00   0.000000000000e+00   0.000000000000e+00   0.000000000000e+00   0.000000000000e+00   0.000000000000e+00   0.000000000000e+00   0.000000000000e+00 
  0.000000000000e+00   0.000000000000e+00   0.000000000000e+00   0.000000000000e+00   0.000000000000e+00   0.000000000000e+00   0.000000000000e+00   0.000000000000e+00   0.000000000000e+00 
  0.000000000000e+00   0.000000000000e+00   0.000000000000e+00   0.000000000000e+00   0.000000000000e+00   0.000000000000e+00   0.000000000000e+00   0.000000000000e+00   0.000000000000e+00 
  0.000000000000e+00   0.000000000000e+00   0.000000000000e+00   0.000000000000e+00   0.000000000000e+00   0.000000000000e+00   0.000000000000e+00   0.000000000000e+00   0.000000000000e+00 
  0.000000000000e+00   0.000000000000e+00   0.000000000000e+00   0.000000000000e+00   0.000000000000e+00   0.000000000000e+00   0.000000000000e+00   0.000000000000e+00   0.000000000000e+00 
  0.000000000000e+00   0.000000000000e+00   0.000000000000e+00   0.000000000000e+00   0.000000000000e+00   0.000000000000e+00   0.000000000000e+00   0.000000000000e+00   0.000000000000e+00 
  0.000000000000e+00   0.000000000000e+00   0.000000000000e+00   0.000000000000e+00   0.000000000000e+00   0.000000000000e+00   0.000000000000e+00   0.000000000000e+00   0.000000000000e+00 
  0.000000000000e+00   0.000000000000e+00   0.000000000000e+00   0.000000000000e+00   0.000000000000e+00   0.000000000000e+00   0.000000000000e+00   0.000000000000e+00   0.000000000000e+00 
  0.000000000000e+00   0.000000000000e+00   0.000000000000e+00   0.000000000000e+00   0.000000000000e+00   0.000000000000e+00   0.000000000000e+00   0.000000000000e+00   0.000000000000e+00 
  0.000000000000e+00   0.000000000000e+00   0.000000000000e+00   0.000000000000e+00   0.000000000000e+00   0.000000000000e+00   0.000000000000e+00   0.000000000000e+00   0.000000000000e+00 
  0.000000000000e+00   0.000000000000e+00   0.000000000000e+00   0.000000000000e+00   0.000000000000e+00   0.000000000000e+00   0.000000000000e+00   0.000000000000e+00   0.000000000000e+00 
  0.000000000000e+00   0.000000000000e+00   0.000000000000e+00   0.000000000000e+00   0.000000000000e+00   0.000000000000e+00   0.000000000000e+00   0.000000000000e+00   0.000000000000e+00 
  0.000000000000e+00   0.000000000000e+00   0.000000000000e+00   0.000000000000e+00   0.000000000000e+00   0.000000000000e+00   0.000000000000e+00   0.000000000000e+00   0.000000000000e+00 
  0.000000000000e+00   0.000000000000e+00   0.000000000000e+00   0.000000000000e+00   0.000000000000e+00   0.000000000000e+00   0.000000000000e+00   0.000000000000e+00   0.000000000000e+00 
  0.000000000000e+00   0.000000000000e+00   0.000000000000e+00   0.000000000000e+00   0.000000000000e+00   0.000000000000e+00   0.000000000000e+00   0.000000000000e+00   0.000000000000e+00 
  0.000000000000e+00   0.000000000000e+00   0.000000000000e+00   0.000000000000e+00   0.000000000000e+00   0.000000000000e+00   0.000000000000e+00   0.000000000000e+00   0.000000000000e+00 
  0.000000000000e+00   0.000000000000e+00   0.000000000000e+00   0.000000000000e+00   0.000000000000e+00   0.000000000000e+00   0.000000000000e+00   0.000000000000e+00   0.000000000000e+00 
  0.000000000000e+00   0.000000000000e+00   0.000000000000e+00   0.000000000000e+00   0.000000000000e+00   0.000000000000e+00   0.000000000000e+00   0.000000000000e+00   0.000000000000e+00 
  0.000000000000e+00   0.000000000000e+00   0.000000000000e+00   0.000000000000e+00   0.000000000000e+00   0.000000000000e+00   0.000000000000e+00   0.000000000000e+00   0.000000000000e+00 
  0.000000000000e+00   0.000000000000e+00   0.000000000000e+00   0.000000000000e+00   0.000000000000e+00   0.000000000000e+00   0.000000000000e+00   0.000000000000e+00   0.000000000000e+00 
  0.000000000000e+00   0.000000000000e+00   0.000000000000e+00   0.000000000000e+00   0.000000000000e+00   0.000000000000e+00   0.000000000000e+00   0.000000000000e+00   0.000000000000e+00 
  0.000000000000e+00   0.000000000000e+00   0.000000000000e+00   0.000000000000e+00   0.000000000000e+00   0.000000000000e+00   0.000000000000e+00   0.000000000000e+00   0.000000000000e+00 
  0.000000000000e+00   0.000000000000e+00   0.000000000000e+00   0.000000000000e+00   0.000000000000e+00   0.000000000000e+00   0.000000000000e+00   0.000000000000e+00   0.000000000000e+00 
  0.000000000000e+00   0.000000000000e+00   0.000000000000e+00   0.000000000000e+00   0.000000000000e+00   0.000000000000e+00   0.000000000000e+00   0.000000000000e+00   0.000000000000e+00 
  0.000000000000e+00   0.000000000000e+00   0.000000000000e+00   0.000000000000e+00   0.000000000000e+00   0.000000000000e+00   0.000000000000e+00   0.000000000000e+00   0.000000000000e+00 
  0.000000000000e+00   0.000000000000e+00   0.000000000000e+00   0.000000000000e+00   0.000000000000e+00   0.000000000000e+00   0.000000000000e+00   0.000000000000e+00   0.000000000000e+00 
  0.000000000000e+00   0.000000000000e+00   0.000000000000e+00   0.000000000000e+00   0.000000000000e+00   0.000000000000e+00   0.000000000000e+00   0.000000000000e+00   0.000000000000e+00 
  0.000000000000e+00   0.000000000000e+00   0.000000000000e+00   0.000000000000e+00   0.000000000000e+00   0.000000000000e+00   0.000000000000e+00   0.000000000000e+00   0.000000000000e+00 
  0.000000000000e+00   0.000000000000e+00   0.000000000000e+00   0.000000000000e+00   0.000000000000e+00   0.000000000000e+00   0.000000000000e+00   0.000000000000e+00   0.000000000000e+00 
  0.000000000000e+00   0.000000000000e+00   0.000000000000e+00   0.000000000000e+00   0.000000000000e+00   0.000000000000e+00   0.000000000000e+00   0.000000000000e+00   0.000000000000e+00 
  0.000000000000e+00   0.000000000000e+00   0.000000000000e+00   0.000000000000e+00   0.000000000000e+00   0.000000000000e+00   0.000000000000e+00   0.000000000000e+00   0.000000000000e+00 
  0.000000000000e+00   0.000000000000e+00   0.000000000000e+00   0.000000000000e+00   0.000000000000e+00   0.000000000000e+00   0.000000000000e+00   0.000000000000e+00   0.000000000000e+00 
  0.000000000000e+00   0.000000000000e+00   0.000000000000e+00   0.000000000000e+00   0.000000000000e+00   0.000000000000e+00   0.000000000000e+00   0.000000000000e+00   0.000000000000e+00 
  0.000000000000e+00   0.000000000000e+00   0.000000000000e+00   0.000000000000e+00   0.000000000000e+00   0.000000000000e+00   0.000000000000e+00   0.000000000000e+00   0.000000000000e+00 
  0.000000000000e+00   0.000000000000e+00   0.000000000000e+00   0.000000000000e+00   0.000000000000e+00   0.000000000000e+00   0.000000000000e+00   0.000000000000e+00   0.000000000000e+00 
  0.000000000000e+00   0.000000000000e+00   0.000000000000e+00   0.000000000000e+00   0.000000000000e+00   0.000000000000e+00   0.000000000000e+00   0.000000000000e+00   0.000000000000e+00 
  0.000000000000e+00   0.000000000000e+00   0.000000000000e+00   0.000000000000e+00   0.000000000000e+00   0.000000000000e+00   0.000000000000e+00   0.000000000000e+00   0.000000000000e+00 
  0.000000000000e+00   0.000000000000e+00   0.000000000000e+00   0.000000000000e+00   0.000000000000e+00   0.000000000000e+00   0.000000000000e+00   0.000000000000e+00   0.000000000000e+00 
  0.000000000000e+00   0.000000000000e+00   0.000000000000e+00   0.000000000000e+00   0.000000000000e+00   0.000000000000e+00   0.000000000000e+00   0.000000000000e+00   0.000000000000e+00 
  0.000000000000e+00   0.000000000000e+00   0.000000000000e+00   0.000000000000e+00   0.000000000000e+00   0.000000000000e+00   0.000000000000e+00   7.731568813324e+00   5.977940082550e+00 
  4.643949508667e+00   3.729987621307e+00   3.411951541901e+00   3.312005281448e+00   3.085927248001e+00   2.979409694672e+00   2.987350463867e+00   2.787987709045e+00   2.822851896286e+00 
  2.264611244202e+00   1.880196332932e+00   3.594304084778e+00   1.690831899643e+00   2.297375202179e+00   2.332048416138e+00   2.850720882416e+00   0.000000000000e+00   0.000000000000e+00 
  5.473793029785e+00   4.579831600189e+00   3.871815919876e+00   3.404850721359e+00   3.133098125458e+00   2.980618715286e+00   2.829797744751e+00   2.761666774750e+00   2.671583890915e+00 
  2.550653219223e+00   2.480027198792e+00   2.200441122055e+00   1.963526844978e+00   1.550500512123e+00   1.907745242119e+00   2.209728240967e+00   2.285660743713e+00   2.449711084366e+00 
  0.000000000000e+00   0.000000000000e+00   4.043488979340e+00   3.635175943375e+00   3.263404369354e+00   3.020063877106e+00   2.827429533005e+00   2.677698135376e+00   2.584156036377e+00 
  2.516972303391e+00   2.468088388443e+00   2.402296781540e+00   2.310114622116e+00   2.166370153427e+00   2.041132211685e+00   1.948065996170e+00   2.033222913742e+00   2.166479110718e+00 
  2.210171461105e+00   2.230238914490e+00   0.000000000000e+00   0.000000000000e+00   2.650249719620e+00   2.563814401627e+00   2.391363143921e+00   2.237242221832e+00   2.137953281403e+00 
  2.100401163101e+00   2.112819910049e+00   2.076453208923e+00   1.961081981659e+00   1.924299001694e+00   1.881367444992e+00   1.773941993713e+00   1.708071708679e+00   1.686680436134e+00 
  1.706907272339e+00   1.762759923935e+00   1.795910239220e+00   1.831785082817e+00   0.000000000000e+00   0.000000000000e+00   1.881471514702e+00   1.750756740570e+00   1.610996365547e+00 
  1.500825762749e+00   1.495872378349e+00   1.580014705658e+00   1.639128923416e+00   1.620769858360e+00   1.698066949844e+00   1.472671389580e+00   1.354181766510e+00   1.305457234383e+00 
  1.269233703613e+00   1.237861990929e+00   1.334595799446e+00   1.317244291306e+00   1.324814438820e+00   1.344901800156e+00   0.000000000000e+00   0.000000000000e+00   1.940602421761e+00 
  1.767804026604e+00   1.438109993935e+00   1.404767632484e+00   1.380189776421e+00   1.694958806038e+00   1.848518252373e+00   1.852799654007e+00   1.813658118248e+00   1.426045060158e+00 
  1.380087614059e+00   1.392783045769e+00   1.384002208710e+00   1.354752779007e+00   1.326243042946e+00   1.356124758720e+00   1.384116768837e+00   1.394057869911e+00   0.000000000000e+00 
  0.000000000000e+00   1.940980553627e+00   1.570211172104e+00   2.049705743790e+00   3.208114147186e+00   2.016570568085e+00   1.468866944313e+00   1.898918509483e+00   2.020130634308e+00 
  1.843614935875e+00   2.602075576782e+00   2.014484405518e+00   3.834994554520e+00   3.827183246613e+00   3.858305692673e+00   1.184737682343e+00   3.928884506226e+00   3.949827671051e+00 
  3.954969644547e+00   0.000000000000e+00   0.000000000000e+00   2.113242149353e+00   2.090147495270e+00   1.703030943871e+00   1.566061139107e+00   1.461010813713e+00   1.608329534531e+00 
  2.201407909393e+00   2.039058923721e+00   2.121201753616e+00   1.871888637543e+00   1.656983971596e+00   1.648743987083e+00   1.641798138618e+00   1.593820214272e+00   1.537685751915e+00 
  1.613795399666e+00   1.647056818008e+00   1.612469673157e+00   0.000000000000e+00   0.000000000000e+00   2.043983936310e+00   2.496609926224e+00   2.385449886322e+00   1.881305336952e+00 
  1.772940039635e+00   1.691841244698e+00   1.965002417564e+00   2.429284572601e+00   2.396862745285e+00   2.764237642288e+00   2.463087797165e+00   2.456481218338e+00   2.428444385529e+00 
  2.253412485123e+00   2.258147478104e+00   2.502808332443e+00   2.546113491058e+00   2.236826658249e+00   0.000000000000e+00   0.000000000000e+00   3.310436248779e+00   2.733022212982e+00 
  2.864101409912e+00   3.472545623779e+00   3.322489976883e+00   3.263027191162e+00   1.719977736473e+00   2.848193645477e+00   2.161327838898e+00   3.802290916443e+00   3.527508735657e+00 
  3.756170272827e+00   3.698931932449e+00   3.020853757858e+00   3.103792905807e+00   4.047317028046e+00   4.112349987030e+00   3.039234876633e+00   0.000000000000e+00   0.000000000000e+00 
  3.330412149429e+00   3.661647081375e+00   3.710905790329e+00   3.434264183044e+00   3.263602256775e+00   3.113731861115e+00   3.027215480804e+00   3.454212903976e+00   3.561405897141e+00 
  3.988702535629e+00   3.760851860046e+00   3.927925825119e+00   3.921569108963e+00   3.605486154556e+00   3.623791217804e+00   4.069877624512e+00   4.150563240051e+00   3.545244455338e+00 
  0.000000000000e+00   0.000000000000e+00   4.548126220703e+00   4.714729309082e+00   4.772437572479e+00   4.562211513519e+00   4.240859508514e+00   3.842296361923e+00   3.799523115158e+00 
  4.086872577667e+00   3.832767486572e+00   3.890247583389e+00   3.950168848038e+00   3.912516832352e+00   3.913617849350e+00   3.890254259109e+00   3.870837211609e+00   3.831921815872e+00 
  3.861143112183e+00   3.824859380722e+00   0.000000000000e+00   0.000000000000e+00   5.495483875275e+00   5.630507946014e+00   5.934831619263e+00   6.362479686737e+00   5.913818359375e+00 
  4.908988475800e+00   4.707291126251e+00   5.277313232422e+00   4.565842151642e+00   4.317327022552e+00   4.408008098602e+00   4.323915481567e+00   4.497266769409e+00   4.321836948395e+00 
  4.308523178101e+00   4.350872516632e+00   4.482274532318e+00   4.311417102814e+00   0.000000000000e+00   0.000000000000e+00   6.448647975922e+00   6.815584659576e+00   7.254980087280e+00 
  6.800953388214e+00   6.070800781250e+00   5.393426895142e+00   5.235480785370e+00   5.291726112366e+00   4.884164333344e+00   4.712221145630e+00   4.742274284363e+00   4.703036308289e+00 
  4.710303306580e+00   4.618669509888e+00   4.683983325958e+00   4.605696678162e+00   4.706130981445e+00   4.573441505432e+00   0.000000000000e+00   0.000000000000e+00   6.613488197327e+00 
  6.706953525543e+00   6.907671928406e+00   6.472083091736e+00   5.948532104492e+00   5.591253280640e+00   5.406096458435e+00   5.211654663086e+00   5.106935501099e+00   5.012343883514e+00 
  4.953674793243e+00   4.934923648834e+00   4.884085178375e+00   4.872475624084e+00   4.913136482239e+00   4.862836360931e+00   4.950426578522e+00   4.789364337921e+00   0.000000000000e+00 
  0.000000000000e+00   6.590368270874e+00   6.589342117310e+00   6.620644092560e+00   6.426274299622e+00   6.123656272888e+00   5.848021030426e+00   5.642277240753e+00   5.491238117218e+00 
  5.372743606567e+00   5.306917190552e+00   5.257184028625e+00   5.213964939117e+00   5.179642677307e+00   5.147049903870e+00   5.132877826691e+00   5.117885112762e+00   5.171220779419e+00 
  5.082892417908e+00   0.000000000000e+00   0.000000000000e+00   6.493051052094e+00   6.504319667816e+00   6.517850399017e+00   6.386515140533e+00   6.172274112701e+00   5.957557201385e+00 
  5.759930133820e+00   5.636008262634e+00   5.510164260864e+00   5.422681808472e+00   5.398870944977e+00   5.344661235809e+00   5.293609142303e+00   5.254383087158e+00   5.246904373169e+00 
  5.237242698669e+00   5.231346607208e+00   5.230398178101e+00   0.000000000000e+00   0.000000000000e+00   6.619161605835e+00   6.545156002045e+00   6.462050914764e+00   6.365644454956e+00 
  6.239020347595e+00   6.075165748596e+00   5.928039550781e+00   5.762172222137e+00   5.676265239716e+00   5.607386112213e+00   5.487624168396e+00   5.460765838623e+00   5.468115329742e+00 
  5.471331596375e+00   5.441033840179e+00   5.423954010010e+00   5.383981704712e+00   5.364758491516e+00   0.000000000000e+00   0.000000000000e+00   0.000000000000e+00   0.000000000000e+00 
  0.000000000000e+00   0.000000000000e+00   0.000000000000e+00   0.000000000000e+00   0.000000000000e+00   0.000000000000e+00   0.000000000000e+00   0.000000000000e+00   0.000000000000e+00 
  0.000000000000e+00   0.000000000000e+00   0.000000000000e+00   0.000000000000e+00   0.000000000000e+00   0.000000000000e+00   0.000000000000e+00   0.000000000000e+00   0.000000000000e+00 
  0.000000000000e+00   0.000000000000e+00   0.000000000000e+00   0.000000000000e+00   0.000000000000e+00   0.000000000000e+00   0.000000000000e+00   0.000000000000e+00   0.000000000000e+00 
  0.000000000000e+00   0.000000000000e+00   0.000000000000e+00   0.000000000000e+00   0.000000000000e+00   0.000000000000e+00   0.000000000000e+00   0.000000000000e+00   0.000000000000e+00 
  0.000000000000e+00   0.000000000000e+00   4.830585479736e+00   3.897273063660e+00   3.130737066269e+00   2.634600877762e+00   2.345001697540e+00   2.171359300613e+00   2.018541812897e+00 
  1.917656064034e+00   1.826578497887e+00   1.715799331665e+00   1.645149707794e+00   1.394408345222e+00   1.165270090103e+00   7.605151534081e-01   1.129107713699e+00   1.421258330345e+00 
  1.475894331932e+00   1.609763264656e+00   0.000000000000e+00   0.000000000000e+00   3.687707662582e+00   3.255427360535e+00   2.814658164978e+00   2.473798513412e+00   2.253588676453e+00 
  2.185912609100e+00   2.067492485046e+00   2.022770166397e+00   1.913923859596e+00   1.809895157814e+00   1.712828755379e+00   1.657565832138e+00   1.464293360710e+00   1.324292182922e+00 
  1.354322910309e+00   1.526648402214e+00   1.594082951546e+00   1.773319482803e+00   0.000000000000e+00   0.000000000000e+00   2.723067045212e+00   2.467328071594e+00   2.213994979858e+00 
  2.026340484619e+00   1.874837636948e+00   1.771250486374e+00   1.677057266235e+00   1.617244601250e+00   1.588101744652e+00   1.496942758560e+00   1.430757522583e+00   1.341671466827e+00 
  1.236044883728e+00   1.197035789490e+00   1.243362545967e+00   1.331417798996e+00   1.347510576248e+00   1.390886425972e+00   0.000000000000e+00   0.000000000000e+00   1.640346407890e+00 
  1.559061884880e+00   1.437787771225e+00   1.332790493965e+00   1.249841928482e+00   1.193359375000e+00   1.164023995399e+00   1.154791116714e+00   1.132374525070e+00   1.087721109390e+00 
  1.025425434113e+00   9.511185288429e-01   9.067763090134e-01   9.045140743256e-01   9.268441796303e-01   9.734915494919e-01   9.921944737434e-01   9.978520870209e-01   0.000000000000e+00 
  0.000000000000e+00   2.231156110764e+00   2.214528322220e+00   2.172470808029e+00   2.136985540390e+00   2.207590579987e+00   2.294797420502e+00   2.337346553802e+00   2.261146545410e+00 
  2.160153865814e+00   2.060652017593e+00   2.060421943665e+00   2.087640762329e+00   2.100424289703e+00   2.081139802933e+00   2.064707517624e+00   2.071189641953e+00   2.096359014511e+00 
  2.118694067001e+00   0.000000000000e+00   0.000000000000e+00   1.033703088760e+00   9.588321447372e-01   8.368754982948e-01   8.255434036255e-01   7.913889288902e-01   8.799633979797e-01 
  9.655717611313e-01   9.980054497719e-01   9.746999144554e-01   8.744471669197e-01   8.178142905235e-01   8.001074194908e-01   7.960159182549e-01   7.981862425804e-01   7.978754639626e-01 
  8.208771944046e-01   8.291755318642e-01   8.308939337730e-01   0.000000000000e+00   0.000000000000e+00   1.396774053574e+00   1.243165135384e+00   9.261592030525e-01   9.197650551796e-01 
  8.751503229141e-01   1.163641452789e+00   1.332983374596e+00   1.407690882683e+00   1.322187185287e+00   9.199859499931e-01   6.392960548401e-01   6.119903922081e-01   6.110709309578e-01 
  5.965023636818e-01   5.662993192673e-01   5.863287448883e-01   5.947072505951e-01   5.970785021782e-01   0.000000000000e+00   0.000000000000e+00   1.576614499092e+00   1.512639999390e+00 
  1.359512567520e+00   1.263413429260e+00   1.198914885521e+00   1.268591284752e+00   1.412490606308e+00   1.477783441544e+00   1.415645956993e+00   1.085506439209e+00   2.543361902237e+00 
  2.826411008835e+00   2.976053237915e+00   3.008287668228e+00   3.083808660507e+00   3.259545087814e+00   3.335349082947e+00   3.249700307846e+00   0.000000000000e+00   0.000000000000e+00 
  1.919515490532e+00   1.994725823402e+00   1.898580431938e+00   1.767382621765e+00   1.702928304672e+00   1.704820871353e+00   1.788413524628e+00   1.945283055305e+00   1.936346888542e+00 
  1.853298783302e+00   1.477939128876e+00   1.398320794106e+00   1.365985155106e+00   1.292965888977e+00   1.274364352226e+00   1.333259820938e+00   1.344383120537e+00   1.242934107780e+00 
  0.000000000000e+00   0.000000000000e+00   2.017840623856e+00   2.405468463898e+00   2.373712301254e+00   1.977132797241e+00   1.855509519577e+00   1.816364645958e+00   1.831715106964e+00 
  2.300567150116e+00   2.128541946411e+00   2.485159158707e+00   2.203386783600e+00   2.203896284103e+00   2.149348735809e+00   1.909423232079e+00   1.892748594284e+00   2.151248931885e+00 
  2.180801391602e+00   1.831488132477e+00   0.000000000000e+00   0.000000000000e+00   2.805599451065e+00   2.873480558395e+00   2.821812152863e+00   2.601688861847e+00   2.411516666412e+00 
  2.292216539383e+00   2.286235094070e+00   2.444330692291e+00   2.520271301270e+00   2.639903306961e+00   2.580961465836e+00   2.611075401306e+00   2.596550941467e+00   2.511885643005e+00 
  2.493359565735e+00   2.567591428757e+00   2.607092857361e+00   2.438348054886e+00   0.000000000000e+00   0.000000000000e+00   3.782730340958e+00   3.837026119232e+00   3.825080633163e+00 
  3.611580610275e+00   3.311576366425e+00   3.079156398773e+00   3.015301942825e+00   3.075121402740e+00   3.024920463562e+00   3.030441761017e+00   3.014493703842e+00   2.998276710510e+00 
  2.976397991180e+00   2.947660446167e+00   2.945224285126e+00   2.938160657883e+00   2.950257062912e+00   2.926130056381e+00   0.000000000000e+00   0.000000000000e+00   4.650886058807e+00 
  4.879403114319e+00   5.179764747620e+00   4.790428638458e+00   4.203913688660e+00   3.697800636292e+00   3.610630512238e+00   3.686956167221e+00   3.426511287689e+00   3.337988138199e+00 
  3.338646888733e+00   3.336965799332e+00   3.342393636703e+00   3.301357507706e+00   3.349883556366e+00   3.304870128632e+00   3.334965467453e+00   3.278516292572e+00   0.000000000000e+00 
  0.000000000000e+00   5.460868358612e+00   6.109647750854e+00   6.978915691376e+00   5.844932079315e+00   4.815693855286e+00   4.430903911591e+00   4.488627433777e+00   4.110925674438e+00 
  3.812231779099e+00   3.737355947495e+00   3.790814399719e+00   3.955454111099e+00   3.727874755859e+00   3.706595182419e+00   3.941340684891e+00   3.706239938736e+00   3.664560556412e+00 
  3.636799335480e+00   0.000000000000e+00   0.000000000000e+00   5.584291934967e+00   5.825206279755e+00   6.232045650482e+00   5.584272384644e+00   4.976451396942e+00   4.657139778137e+00 
  4.560359001160e+00   4.295012950897e+00   4.140713691711e+00   4.074256896973e+00   4.040839195251e+00   4.093229770660e+00   3.968401193619e+00   3.953884601593e+00   4.051498889923e+00 
  3.942859649658e+00   3.963001728058e+00   3.907364606857e+00   0.000000000000e+00   0.000000000000e+00   5.540165424347e+00   5.608757495880e+00   5.663089275360e+00   5.424958705902e+00 
  5.116871833801e+00   4.853807449341e+00   4.662519931793e+00   4.507008552551e+00   4.400197982788e+00   4.336162090302e+00   4.285813808441e+00   4.250757217407e+00   4.223151206970e+00 
  4.198608875275e+00   4.189209461212e+00   4.178871631622e+00   4.201627731323e+00   4.124798297882e+00   0.000000000000e+00   0.000000000000e+00   5.527014255524e+00   5.558744907379e+00 
  5.535670757294e+00   5.363918304443e+00   5.134795665741e+00   4.929656028748e+00   4.755043029785e+00   4.611083507538e+00   4.511267662048e+00   4.439621925354e+00   4.382381439209e+00 
  4.347009658813e+00   4.315895557404e+00   4.292625904083e+00   4.274339675903e+00   4.274466037750e+00   4.282634258270e+00   4.283505916595e+00   0.000000000000e+00   0.000000000000e+00 
  5.610610008240e+00   5.554512023926e+00   5.484136104584e+00   5.423145771027e+00   5.311840534210e+00   5.151054859161e+00   4.989217281342e+00   4.857288837433e+00   4.757837772369e+00 
  4.691329956055e+00   4.642814159393e+00   4.586596012115e+00   4.552947521210e+00   4.521459579468e+00   4.510489940643e+00   4.477551460266e+00   4.443685531616e+00   4.435564517975e+00 
  0.000000000000e+00   0.000000000000e+00   0.000000000000e+00   0.000000000000e+00   0.000000000000e+00   0.000000000000e+00   0.000000000000e+00   0.000000000000e+00   0.000000000000e+00 
  0.000000000000e+00   0.000000000000e+00   0.000000000000e+00   0.000000000000e+00   0.000000000000e+00   0.000000000000e+00   0.000000000000e+00   0.000000000000e+00   0.000000000000e+00 
  0.000000000000e+00   0.000000000000e+00   0.000000000000e+00   0.000000000000e+00   0.000000000000e+00   0.000000000000e+00   0.000000000000e+00   0.000000000000e+00   0.000000000000e+00 
  0.000000000000e+00   0.000000000000e+00   0.000000000000e+00   0.000000000000e+00   0.000000000000e+00   0.000000000000e+00   0.000000000000e+00   0.000000000000e+00   0.000000000000e+00 
  0.000000000000e+00   0.000000000000e+00   0.000000000000e+00   0.000000000000e+00   0.000000000000e+00   0.000000000000e+00   2.692753076553e+00   2.363717317581e+00   2.013864994049e+00 
  1.755283117294e+00   1.577880144119e+00   1.452285289764e+00   1.370823264122e+00   1.303345918655e+00   1.244934558868e+00   1.178993344307e+00   1.092325329781e+00   9.624695181847e-01 
  8.414241075516e-01   7.487456202507e-01   8.469250202179e-01   9.665511846542e-01   1.021793842316e+00   1.039813041687e+00   0.000000000000e+00   0.000000000000e+00   2.125935316086e+00 
  1.943261027336e+00   1.720435976982e+00   1.523853540421e+00   1.362061381340e+00   1.250550866127e+00   1.162434339523e+00   1.102228403091e+00   1.067542195320e+00   1.008885145187e+00 
  9.238238930702e-01   8.191761374474e-01   7.056557536125e-01   6.747336387634e-01   7.334485650063e-01   8.280884623528e-01   8.598507046700e-01   8.790334463120e-01   0.000000000000e+00 
  0.000000000000e+00   1.660442471504e+00   1.542703986168e+00   1.396283149719e+00   1.290348291397e+00   1.196888685226e+00   1.120959758759e+00   1.047295808792e+00   1.012851119041e+00 
  1.055425763130e+00   9.074406623840e-01   9.162353873253e-01   8.453420400620e-01   7.840508222580e-01   7.583701610565e-01   7.779169678688e-01   8.223533630371e-01   8.445492982864e-01 
  8.661122322083e-01   0.000000000000e+00   0.000000000000e+00   1.150241255760e+00   1.094024777412e+00   1.008573651314e+00   9.301204681396e-01   8.630223274231e-01   8.218994736671e-01 
  7.926653027534e-01   7.695387601852e-01   7.752318978310e-01   7.077800035477e-01   6.868294477463e-01   6.417922973633e-01   6.145759820938e-01   6.061503291130e-01   6.152729392052e-01 
  6.373819708824e-01   6.522783041000e-01   6.579145193100e-01   0.000000000000e+00   0.000000000000e+00   5.000501871109e-01   4.755288958549e-01   4.359877407551e-01   4.023056626320e-01 
  3.806494176388e-01   3.754306137562e-01   3.774959743023e-01   3.706300854683e-01   3.492966592312e-01   3.205617964268e-01   2.762416899204e-01   2.424852102995e-01   2.262816429138e-01 
  2.215428799391e-01   2.232941091061e-01   2.292582541704e-01   2.324818670750e-01   2.326271235943e-01   0.000000000000e+00   0.000000000000e+00   7.023460865021e-01   6.670237183571e-01 
  6.104031205177e-01   5.852379202843e-01   5.696442723274e-01   5.909137129784e-01   6.166465282440e-01   6.326186656952e-01   6.166759729385e-01   5.513034462929e-01   4.796748459339e-01 
  4.455965459347e-01   4.277150630951e-01   4.227342605591e-01   4.253498017788e-01   4.285118281841e-01   4.296689629555e-01   4.289073646069e-01   0.000000000000e+00   0.000000000000e+00 