# vtk DataFile Version 2.0
Written using VisIt writer
ASCII
DATASET RECTILINEAR_GRID
DIMENSIONS 20 20 20
X_COORDINATES 20 float
  0.000000000000e+00   1.000000000000e+00   2.000000000000e+00   3.000000000000e+00   4.000000000000e+00   5.000000000000e+00   6.000000000000e+00   7.000000000000e+00   8.000000000000e+00 
  9.000000000000e+00   1.000000000000e+01   1.100000000000e+01   1.200000000000e+01   1.300000000000e+01   1.400000000000e+01   1.500000000000e+01   1.600000000000e+01   1.700000000000e+01 
  1.800000000000e+01   1.900000000000e+01 
Y_COORDINATES 20 float
  0.000000000000e+00   1.000000000000e+00   2.000000000000e+00   3.000000000000e+00   4.000000000000e+00   5.000000000000e+00   6.000000000000e+00   7.000000000000e+00   8.000000000000e+00 
  9.000000000000e+00   1.000000000000e+01   1.100000000000e+01   1.200000000000e+01   1.300000000000e+01   1.400000000000e+01   1.500000000000e+01   1.600000000000e+01   1.700000000000e+01 
  1.800000000000e+01   1.900000000000e+01 
Z_COORDINATES 20 float
  0.000000000000e+00   1.000000000000e+00   2.000000000000e+00   3.000000000000e+00   4.000000000000e+00   5.000000000000e+00   6.000000000000e+00   7.000000000000e+00   8.000000000000e+00 
  9.000000000000e+00   1.000000000000e+01   1.100000000000e+01   1.200000000000e+01   1.300000000000e+01   1.400000000000e+01   1.500000000000e+01   1.600000000000e+01   1.700000000000e+01 
  1.800000000000e+01   1.900000000000e+01 
CELL_DATA 6859
POINT_DATA 8000
SCALARS pressure float
LOOKUP_TABLE default
  0.000000000000e+00   0.000000000000e+00   0.000000000000e+00   0.000000000000e+00   0.000000000000e+00   0.000000000000e+00   0.000000000000e+00   0.000000000000e+00   0.000000000000e+00 
  0.000000000000e+00   0.000000000000e+00   0.000000000000e+00   0.000000000000e+00   0.000000000000e+00   0.000000000000e+00   0.000000000000e+00   0.000000000000e+00   0.000000000000e+00 
  0.000000000000e+00   0.000000000000e+00   0.000000000000e+00   0.000000000000e+00   0.000000000000e+00   0.000000000000e+00   0.000000000000e+00   0.000000000000e+00   0.000000000000e+00 
  0.000000000000e+00   0.000000000000e+00   0.000000000000e+00   0.000000000000e+00   0.000000000000e+00   0.000000000000e+00   0.000000000000e+00   0.000000000000e+00   0.000000000000e+00 
  0.000000000000e+00   0.000000000000e+00   0.000000000000e+00   0.000000000000e+00   0.000000000000e+00   0.000000000000e+00   0.000000000000e+00   0.000000000000e+00   0.000000000000e+00 
  0.000000000000e+00   0.000000000000e+00   0.000000000000e+00   0.000000000000e+00   0.000000000000e+00   0.000000000000e+00   0.000000000000e+00   0.000000000000e+00   0.000000000000e+00 
  0.000000000000e+00   0.000000000000e+00   0.000000000000e+00   0.000000000000e+00   0.000000000000e+00   0.000000000000e+00   0.000000000000e+00   0.000000000000e+00   0.000000000000e+00 
  0.000000000000e+00   0.000000000000e+00   0.000000000000e+00   0.000000000000e+00   0.000000000000e+00   0.000000000000e+00   0.000000000000e+00   0.000000000000e+00   0.000000000000e+00 
  0.000000000000e+00   0.000000000000e+00   0.000000000000e+00   0.000000000000e+00   0.000000000000e+00   0.000000000000e+00   0.000000000000e+00   0.000000000000e+00   0.000000000000e+00 
  0.000000000000e+00   0.000000000000e+00   0.000000000000e+00   0.000000000000e+00   0.000000000000e+00   0.000000000000e+00   0.000000000000e+00   0.000000000000e+00   0.000000000000e+00 
  0.000000000000e+00   0.000000000000e+00   0.000000000000e+00   0.000000000000e+00   0.000000000000e+00   0.000000000000e+00   0.000000000000e+00   0.000000000000e+00   0.000000000000e+00 
  0.000000000000e+00   0.000000000000e+00   0.000000000000e+00   0.000000000000e+00   0.000000000000e+00   0.000000000000e+00   0.000000000000e+00   0.000000000000e+00   0.000000000000e+00 
  0.000000000000e+00   0.000000000000e+00   0.000000000000e+00   0.000000000000e+00   0.000000000000e+00   0.000000000000e+00   0.000000000000e+00   0.000000000000e+00   0.000000000000e+00 
  0.000000000000e+00   0.000000000000e+00   0.000000000000e+00   0.000000000000e+00   0.000000000000e+00   0.000000000000e+00   0.000000000000e+00   0.000000000000e+00   0.000000000000e+00 
  0.000000000000e+00   0.000000000000e+00   0.000000000000e+00   0.000000000000e+00   0.000000000000e+00   0.000000000000e+00   0.000000000000e+00   0.000000000000e+00   0.000000000000e+00 
  0.000000000000e+00   0.000000000000e+00   0.000000000000e+00   0.000000000000e+00   0.000000000000e+00   0.000000000000e+00   0.000000000000e+00   0.000000000000e+00   0.000000000000e+00 
  0.000000000000e+00   0.000000000000e+00   0.000000000000e+00   0.000000000000e+00   0.000000000000e+00   0.000000000000e+00   0.000000000000e+00   0.000000000000e+00   0.000000000000e+00 
  0.000000000000e+00   0.000000000000e+00   0.000000000000e+00   0.000000000000e+00   0.000000000000e+00   0.000000000000e+00   0.000000000000e+00   0.000000000000e+00   0.000000000000e+00 
  0.000000000000e+00   0.000000000000e+00   0.000000000000e+00   0.000000000000e+00   0.000000000000e+00   0.000000000000e+00   0.000000000000e+00   0.000000000000e+00   0.000000000000e+00 
  0.000000000000e+00   0.000000000000e+00   0.000000000000e+00   0.000000000000e+00   0.000000000000e+00   0.000000000000e+00   0.000000000000e+00   0.000000000000e+00   0.000000000000e+00 
  0.000000000000e+00   0.000000000000e+00   0.000000000000e+00   0.000000000000e+00   0.000000000000e+00   0.000000000000e+00   0.000000000000e+00   0.000000000000e+00   0.000000000000e+00 
  0.000000000000e+00   0.000000000000e+00   0.000000000000e+00   0.000000000000e+00   0.000000000000e+00   0.000000000000e+00   0.000000000000e+00   0.000000000000e+00   0.000000000000e+00 
  0.000000000000e+00   0.000000000000e+00   0.000000000000e+00   0.000000000000e+00   0.000000000000e+00   0.000000000000e+00   0.000000000000e+00   0.000000000000e+00   0.000000000000e+00 
  0.000000000000e+00   0.000000000000e+00   0.000000000000e+00   0.000000000000e+00   0.000000000000e+00   0.000000000000e+00   0.000000000000e+00   0.000000000000e+00   0.000000000000e+00 
  0.000000000000e+00   0.000000000000e+00   0.000000000000e+00   0.000000000000e+00   0.000000000000e+00   0.000000000000e+00   0.000000000000e+00   0.000000000000e+00   0.000000000000e+00 
  0.000000000000e+00   0.000000000000e+00   0.000000000000e+00   0.000000000000e+00   0.000000000000e+00   0.000000000000e+00   0.000000000000e+00   0.000000000000e+00   0.000000000000e+00 
  0.000000000000e+00   0.000000000000e+00   0.000000000000e+00   0.000000000000e+00   0.000000000000e+00   0.000000000000e+00   0.000000000000e+00   0.000000000000e+00   0.000000000000e+00 
  0.000000000000e+00   0.000000000000e+00   0.000000000000e+00   0.000000000000e+00   0.000000000000e+00   0.000000000000e+00   0.000000000000e+00   0.000000000000e+00   0.000000000000e+00 
  0.000000000000e+00   0.000000000000e+00   0.000000000000e+00   0.000000000000e+00   0.000000000000e+00   0.000000000000e+00   0.000000000000e+00   0.000000000000e+00   0.000000000000e+00 
  0.000000000000e+00   0.000000000000e+00   0.000000000000e+00   0.000000000000e+00   0.000000000000e+00   0.000000000000e+00   0.000000000000e+00   0.000000000000e+00   0.000000000000e+00 
  0.000000000000e+00   0.000000000000e+00   0.000000000000e+00   0.000000000000e+00   0.000000000000e+00   0.000000000000e+00   0.000000000000e+00   0.000000000000e+00   0.000000000000e+00 
  0.000000000000e+00   0.000000000000e+00   0.000000000000e+00   0.000000000000e+00   0.000000000000e+00   0.000000000000e+00   0.000000000000e+00   0.000000000000e+00   0.000000000000e+00 
  0.000000000000e+00   0.000000000000e+00   0.000000000000e+00   0.000000000000e+00   0.000000000000e+00   0.000000000000e+00   0.000000000000e+00   0.000000000000e+00   0.000000000000e+00 
  0.000000000000e+00   0.000000000000e+00   0.000000000000e+00   0.000000000000e+00   0.000000000000e+00   0.000000000000e+00   0.000000000000e+00   0.000000000000e+00   0.000000000000e+00 
  0.000000000000e+00   0.000000000000e+00   0.000000000000e+00   0.000000000000e+00   0.000000000000e+00   0.000000000000e+00   0.000000000000e+00   0.000000000000e+00   0.000000000000e+00 
  0.000000000000e+00   0.000000000000e+00   0.000000000000e+00   0.000000000000e+00   0.000000000000e+00   0.000000000000e+00   0.000000000000e+00   0.000000000000e+00   0.000000000000e+00 
  0.000000000000e+00   0.000000000000e+00   0.000000000000e+00   0.000000000000e+00   0.000000000000e+00   0.000000000000e+00   0.000000000000e+00   0.000000000000e+00   0.000000000000e+00 
  0.000000000000e+00   0.000000000000e+00   0.000000000000e+00   0.000000000000e+00   0.000000000000e+00   0.000000000000e+00   0.000000000000e+00   0.000000000000e+00   0.000000000000e+00 
  0.000000000000e+00   0.000000000000e+00   0.000000000000e+00   0.000000000000e+00   0.000000000000e+00   0.000000000000e+00   0.000000000000e+00   0.000000000000e+00   0.000000000000e+00 
  0.000000000000e+00   0.000000000000e+00   0.000000000000e+00   0.000000000000e+00   0.000000000000e+00   0.000000000000e+00   0.000000000000e+00   0.000000000000e+00   0.000000000000e+00 
  0.000000000000e+00   0.000000000000e+00   0.000000000000e+00   0.000000000000e+00   0.000000000000e+00   0.000000000000e+00   0.000000000000e+00   0.000000000000e+00   0.000000000000e+00 
  0.000000000000e+00   0.000000000000e+00   0.000000000000e+00   0.000000000000e+00   0.000000000000e+00   0.000000000000e+00   0.000000000000e+00   0.000000000000e+00   0.000000000000e+00 
  0.000000000000e+00   0.000000000000e+00   0.000000000000e+00   0.000000000000e+00   0.000000000000e+00   0.000000000000e+00   0.000000000000e+00   0.000000000000e+00   0.000000000000e+00 
  0.000000000000e+00   0.000000000000e+00   0.000000000000e+00   0.000000000000e+00   0.000000000000e+00   0.000000000000e+00   0.000000000000e+00   0.000000000000e+00   0.000000000000e+00 
  0.000000000000e+00   0.000000000000e+00   0.000000000000e+00   0.000000000000e+00   0.000000000000e+00   0.000000000000e+00   0.000000000000e+00   0.000000000000e+00   0.000000000000e+00 
  0.000000000000e+00   0.000000000000e+00   0.000000000000e+00   0.000000000000e+00   0.000000000000e+00   0.000000000000e+00   0.000000000000e+00   0.000000000000e+00   0.000000000000e+00 
  0.000000000000e+00   0.000000000000e+00   0.000000000000e+00   0.000000000000e+00   0.000000000000e+00   0.000000000000e+00   0.000000000000e+00   3.662747383118e+00   3.712440252304e+00 
  3.819514989853e+00   4.000317573547e+00   4.281775951385e+00   4.700756549835e+00   5.292335510254e+00   6.042255878448e+00   6.779504299164e+00   7.411944389343e+00   7.918398857117e+00 
  8.309466362000e+00   8.604710578918e+00   8.823273658752e+00   8.980912208557e+00   9.089597702026e+00   9.157540321350e+00   9.191029548645e+00   0.000000000000e+00   0.000000000000e+00 
  3.241468429565e+00   3.284573078156e+00   3.378174543381e+00   3.538858652115e+00   3.798748970032e+00   4.215674877167e+00   4.887564659119e+00   5.917807579041e+00   6.844470500946e+00 
  7.567854404449e+00   8.109992980957e+00   8.511560440063e+00   8.807228088379e+00   9.022846221924e+00   9.176959037781e+00   9.282638549805e+00   9.348477363586e+00   9.381011009216e+00 
  0.000000000000e+00   0.000000000000e+00   2.135629415512e+00   2.162387132645e+00   2.222146034241e+00   2.329626083374e+00   2.515685081482e+00   2.858669281006e+00   3.597318887711e+00 
  5.614440441132e+00   7.005543708801e+00   7.899857997894e+00   8.494863510132e+00   8.906051635742e+00   9.196839332581e+00   9.403870582581e+00   9.549683570862e+00   9.648771286011e+00 
  9.710153579712e+00   9.740695953369e+00   0.000000000000e+00   0.000000000000e+00   7.356602191925e+00   7.354657173157e+00   7.351058483124e+00   7.350052833557e+00   7.351760864258e+00 
  7.351410865784e+00   7.350182533264e+00   5.778891086578e+00   7.920187950134e+00   8.963454246521e+00   9.574476242065e+00   9.970765113831e+00   1.024112129211e+01   1.042925548553e+01 
  1.055971145630e+01   1.064742851257e+01   1.070135593414e+01   1.072873401642e+01   0.000000000000e+00   0.000000000000e+00   2.024431943893e+00   2.045178413391e+00   2.084285020828e+00 
  2.160834789276e+00   2.303195476532e+00   2.586519002914e+00   3.252864360809e+00   5.189183235168e+00   6.498193740845e+00   7.316246032715e+00   7.845188617706e+00   8.202059745789e+00 
  8.449918746948e+00   8.624120712280e+00   8.745692253113e+00   8.827793121338e+00   8.878263473511e+00   8.904420852661e+00   0.000000000000e+00   0.000000000000e+00   2.627119064331e+00 
  2.636648416519e+00   2.711176395416e+00   2.790866851807e+00   2.958259820938e+00   3.251892328262e+00   3.766756057739e+00   4.618952751160e+00   5.365923881531e+00   5.925088882446e+00 
  6.327594757080e+00   6.616270065308e+00   6.823865890503e+00   6.972710132599e+00   7.077754974365e+00   7.149134635925e+00   7.192973136902e+00   7.216690063477e+00   0.000000000000e+00 
  0.000000000000e+00   2.493202686310e+00   2.512767791748e+00   2.596783638000e+00   2.668599128723e+00   2.802222013474e+00   3.017524003983e+00   3.341729879379e+00   3.777297258377e+00 
  4.200698852539e+00   4.554771900177e+00   4.832063674927e+00   5.042850971222e+00   5.200104236603e+00   5.315211772919e+00   5.397265434265e+00   5.453248977661e+00   5.487334251404e+00 
  5.507222652435e+00   0.000000000000e+00   0.000000000000e+00   1.668102025986e+00   1.678076028824e+00   1.690727472305e+00   1.738553762436e+00   1.821345329285e+00   1.939879298210e+00 
  2.104238986969e+00   2.307818651199e+00   2.513805627823e+00   2.697366237640e+00   2.849973440170e+00   2.971473217010e+00   3.064496755600e+00   3.133310079575e+00   3.182482004166e+00 
  3.216028690338e+00   3.235941171646e+00   3.249458312988e+00   0.000000000000e+00   0.000000000000e+00   5.186388015747e+00   5.175412654877e+00   5.155620574951e+00   5.121346950531e+00 
  5.073286533356e+00   5.010856628418e+00   4.930188655853e+00   4.826364994049e+00   4.695348262787e+00   4.536551475525e+00   4.357433319092e+00   4.178474426270e+00   4.028701782227e+00 
  3.916223287582e+00   3.837217569351e+00   3.784981250763e+00   3.752531528473e+00   3.741309404373e+00   0.000000000000e+00   0.000000000000e+00   2.436787605286e+00   2.438681125641e+00 
  2.446594476700e+00   2.464908838272e+00   2.497653245926e+00   2.547436475754e+00   2.617996931076e+00   2.714633464813e+00   2.843427896500e+00   3.008589506149e+00   3.204321146011e+00 
  3.403458833694e+00   3.565162658691e+00   3.672627210617e+00   3.737298011780e+00   3.774900436401e+00   3.794039964676e+00   3.809202194214e+00   0.000000000000e+00   0.000000000000e+00 
  3.880132675171e+00   3.877799034119e+00   3.884268045425e+00   3.907736539841e+00   3.953024387360e+00   4.025541305542e+00   4.133387565613e+00   4.289021015167e+00   4.511227607727e+00 
  4.824590682983e+00   5.245110988617e+00   5.710061550140e+00   6.042483806610e+00   6.223892688751e+00   6.319743156433e+00   6.372419357300e+00   6.398981094360e+00   6.419795989990e+00 
  0.000000000000e+00   0.000000000000e+00   4.932390689850e+00   4.901943206787e+00   4.890717029572e+00   4.910955429077e+00   4.962131500244e+00   5.049913406372e+00   5.185337066650e+00 
  5.387863636017e+00   5.691969871521e+00   6.156263351440e+00   6.881434917450e+00   7.805672168732e+00   8.354583740234e+00   8.561956405640e+00   8.651789665222e+00   8.701153755188e+00 
  8.727600097656e+00   8.748818397522e+00   0.000000000000e+00   0.000000000000e+00   5.951980590820e+00   5.808132648468e+00   5.752731323242e+00   5.769768714905e+00   5.825341701508e+00 
  5.923231601715e+00   6.078735828400e+00   6.320080280304e+00   6.709944725037e+00   7.396344661713e+00   8.718874931335e+00   1.058502483368e+01   1.142681694031e+01   1.159062862396e+01 
  1.162899494171e+01   1.165167427063e+01   1.167124271393e+01   1.169038486481e+01   0.000000000000e+00   0.000000000000e+00   7.089259624481e+00   6.725461959839e+00   6.633809566498e+00 
  6.629383563995e+00   6.686693191528e+00   6.783373355865e+00   6.938060760498e+00   7.170821666718e+00   7.518938541412e+00   8.064932823181e+00   8.973843574524e+00   1.018512821198e+01 
  1.084553050995e+01   1.107550907135e+01   1.118166637421e+01   1.124410247803e+01   1.128320217133e+01   1.128065681458e+01   0.000000000000e+00   0.000000000000e+00   7.881518363953e+00 
  7.485023498535e+00   7.428214073181e+00   7.400197505951e+00   7.453373432159e+00   7.542268753052e+00   7.688920021057e+00   7.910155773163e+00   8.215206146240e+00   8.634246826172e+00 
  9.178218841553e+00   9.769430160522e+00   1.021858310699e+01   1.049509334564e+01   1.065902900696e+01   1.076441287994e+01   1.084724330902e+01   1.086924743652e+01   0.000000000000e+00 
  0.000000000000e+00   7.757374763489e+00   7.687505722046e+00   7.900561332703e+00   8.025053024292e+00   8.104007720947e+00   8.189268112183e+00   8.335942268372e+00   8.561858177185e+00 
  8.802301406860e+00   9.123390197754e+00   9.495515823364e+00   9.868349075317e+00   1.018609905243e+01   1.044219589233e+01   1.061948680878e+01   1.072540378571e+01   1.079753398895e+01 
  1.085666847229e+01   0.000000000000e+00   0.000000000000e+00   7.326817989349e+00   8.289906501770e+00   8.641499519348e+00   8.866455078125e+00   8.841653823853e+00   8.808725357056e+00 
  8.970524787903e+00   9.216299057007e+00   9.426150321960e+00   9.702363967896e+00   9.994632720947e+00   1.029907035828e+01   1.054789161682e+01   1.079582118988e+01   1.101233577728e+01 
  1.110517692566e+01   1.106253433228e+01   1.084080123901e+01   0.000000000000e+00   0.000000000000e+00   1.092069435120e+01   8.822789192200e+00   8.640032768250e+00   9.470183372498e+00 
  9.562219619751e+00   9.331435203552e+00   9.057306289673e+00   9.579043388367e+00   9.682713508606e+00   9.981644630432e+00   1.020804595947e+01   1.052967357635e+01   1.048247718811e+01 
  1.110543060303e+01   1.135284328461e+01   1.130307579041e+01   1.136669826508e+01   1.181250095367e+01   0.000000000000e+00   0.000000000000e+00   0.000000000000e+00   0.000000000000e+00 
  0.000000000000e+00   0.000000000000e+00   0.000000000000e+00   0.000000000000e+00   0.000000000000e+00   0.000000000000e+00   0.000000000000e+00   0.000000000000e+00   0.000000000000e+00 
  0.000000000000e+00   0.000000000000e+00   0.000000000000e+00   0.000000000000e+00   0.000000000000e+00   0.000000000000e+00   0.000000000000e+00   0.000000000000e+00   0.000000000000e+00 
  0.000000000000e+00   0.000000000000e+00   0.000000000000e+00   0.000000000000e+00   0.000000000000e+00   0.000000000000e+00   0.000000000000e+00   0.000000000000e+00   0.000000000000e+00 
  0.000000000000e+00   0.000000000000e+00   0.000000000000e+00   0.000000000000e+00   0.000000000000e+00   0.000000000000e+00   0.000000000000e+00   0.000000000000e+00   0.000000000000e+00 
  0.000000000000e+00   0.000000000000e+00   2.922398805618e+00   2.970904111862e+00   3.074856519699e+00   3.248646974564e+00   3.514623880386e+00   3.900407552719e+00   4.425767421722e+00 
  5.066210746765e+00   5.706007480621e+00   6.268511295319e+00   6.728520870209e+00   7.089374542236e+00   7.364920616150e+00   7.570545196533e+00   7.719685554504e+00   7.822901248932e+00 
  7.887580394745e+00   7.919520378113e+00   0.000000000000e+00   0.000000000000e+00   2.633975505829e+00   2.677821397781e+00   2.772576808929e+00   2.933695793152e+00   3.188411235809e+00 
  3.579550743103e+00   4.161711215973e+00   4.947502613068e+00   5.699197292328e+00   6.321001529694e+00   6.805745601654e+00   7.173979282379e+00   7.449529170990e+00   7.652614116669e+00 
  7.798794269562e+00   7.899497985840e+00   7.962413787842e+00   7.993568897247e+00   0.000000000000e+00   0.000000000000e+00   2.087393283844e+00   2.121750593185e+00   2.197254180908e+00 
  2.329847812653e+00   2.551019430161e+00   2.925889730453e+00   3.588867664337e+00   4.737378597260e+00   5.715149879456e+00   6.435560703278e+00   6.953495502472e+00   7.327281475067e+00 
  7.598346710205e+00   7.794330120087e+00   7.933731555939e+00   8.029070854187e+00   8.088347434998e+00   8.117904663086e+00   0.000000000000e+00   0.000000000000e+00   1.726361393929e+00 
  1.750956654549e+00   1.804566383362e+00   1.900047898293e+00   2.064248561859e+00   2.364287376404e+00   3.002003908157e+00   4.773131370544e+00   5.983826160431e+00   6.763953208923e+00 
  7.284824371338e+00   7.645363807678e+00   7.900365352631e+00   8.081817626953e+00   8.209521293640e+00   8.296254158020e+00   8.349887847900e+00   8.377063751221e+00   0.000000000000e+00 
  0.000000000000e+00   1.803194046021e+00   1.831179976463e+00   1.889296889305e+00   1.993558049202e+00   2.172546863556e+00   2.491935729980e+00   3.088554382324e+00   4.163286209106e+00 
  5.066251754761e+00   5.717082977295e+00   6.174597263336e+00   6.498572826385e+00   6.730151176453e+00   6.895839691162e+00   7.012809276581e+00   7.092406272888e+00   7.141562461853e+00 
  7.167081832886e+00   0.000000000000e+00   0.000000000000e+00   2.053564786911e+00   2.073722600937e+00   2.127981185913e+00   2.225720882416e+00   2.398267745972e+00   2.676497697830e+00 
  3.117844820023e+00   3.745151996613e+00   4.336951255798e+00   4.812126636505e+00   5.171717643738e+00   5.438451766968e+00   5.634605407715e+00   5.777315616608e+00   5.878995418549e+00 
  5.948524951935e+00   5.991411685944e+00   6.014611244202e+00   0.000000000000e+00   0.000000000000e+00   2.023034811020e+00   2.044116020203e+00   2.094778776169e+00   2.178865432739e+00 
  2.315385341644e+00   2.519880294800e+00   2.813005924225e+00   3.185064554214e+00   3.556342840195e+00   3.879019021988e+00   4.140527725220e+00   4.344799995422e+00   4.500360488892e+00 
  4.615892410278e+00   4.699040412903e+00   4.756103992462e+00   4.791074275970e+00   4.811319351196e+00   0.000000000000e+00   0.000000000000e+00   1.687034845352e+00   1.704470157623e+00 
  1.736863255501e+00   1.794817805290e+00   1.885885357857e+00   2.017196655273e+00   2.194143533707e+00   2.407850980759e+00   2.629030942917e+00   2.834578752518e+00   3.013393402100e+00 
  3.161634683609e+00   3.278825044632e+00   3.367233753204e+00   3.430919408798e+00   3.474379539490e+00   3.500442743301e+00   3.517246961594e+00   0.000000000000e+00   0.000000000000e+00 
  1.383559942245e+00   1.391780138016e+00   1.410796523094e+00   1.444030642509e+00   1.494668126106e+00   1.566304564476e+00   1.660850882530e+00   1.775857806206e+00   1.903812646866e+00 
  2.036951780319e+00   2.167874097824e+00   2.287318944931e+00   2.385493278503e+00   2.458900928497e+00   2.510113477707e+00   2.543831825256e+00   2.563027620316e+00   2.576961994171e+00 
  0.000000000000e+00   0.000000000000e+00   2.244409322739e+00   2.249842166901e+00   2.264499902725e+00   2.293226718903e+00   2.340112924576e+00   2.408642292023e+00   2.502331256866e+00 
  2.624343395233e+00   2.776872158051e+00   2.959926605225e+00   3.165598869324e+00   3.369286537170e+00   3.536087512970e+00   3.653091430664e+00   3.728447914124e+00   3.774686336517e+00 
  3.799701213837e+00   3.817879676819e+00   0.000000000000e+00   0.000000000000e+00   3.182480573654e+00   3.183336734772e+00   3.193449735641e+00   3.220259189606e+00   3.268806934357e+00 
  3.344262123108e+00   3.453322649002e+00   3.605271577835e+00   3.812577724457e+00   4.088148117065e+00   4.431242942810e+00   4.790950298309e+00   5.067146778107e+00   5.238687038422e+00 
  5.338305473328e+00   5.395536422729e+00   5.425585746765e+00   5.446863174438e+00   0.000000000000e+00   0.000000000000e+00   4.048744678497e+00   4.036507606506e+00   4.035554885864e+00 
  4.057605743408e+00   4.107086658478e+00   4.189947605133e+00   4.315299987793e+00   4.498096466064e+00   4.762847900391e+00   5.145599365234e+00   5.683783054352e+00   6.301459789276e+00 
  6.713099479675e+00   6.920797824860e+00   7.027661323547e+00   7.086395263672e+00   7.117304325104e+00   7.138689041138e+00   0.000000000000e+00   0.000000000000e+00   4.884111881256e+00 
  4.831197738647e+00   4.807514667511e+00   4.823902606964e+00   4.873703479767e+00   4.962101459503e+00   5.100111961365e+00   5.307234764099e+00   5.620681762695e+00   6.110486984253e+00 
  6.895056724548e+00   7.884549617767e+00   8.440636634827e+00   8.654250144958e+00   8.751856803894e+00   8.805598258972e+00   8.835809707642e+00   8.852900505066e+00   0.000000000000e+00 
  0.000000000000e+00   5.628289699554e+00   5.533246994019e+00   5.484667778015e+00   5.499433994293e+00   5.556145668030e+00   5.648209571838e+00   5.789380073547e+00   5.996308326721e+00 
  6.294993877411e+00   6.725883960724e+00   7.336157798767e+00   8.052296638489e+00   8.533807754517e+00   8.776238441467e+00   8.904352188110e+00   8.976813316345e+00   9.020985603333e+00 
  9.027113914490e+00   0.000000000000e+00   0.000000000000e+00   6.320464134216e+00   6.271861076355e+00   6.262279987335e+00   6.279844284058e+00   6.336008071899e+00   6.423528671265e+00 
  6.559895515442e+00   6.757278442383e+00   7.025683879852e+00   7.380422592163e+00   7.821535110474e+00   8.290661811829e+00   8.656777381897e+00   8.899992942810e+00   9.051154136658e+00 
  9.143424987793e+00   9.208446502686e+00   9.166537284851e+00   0.000000000000e+00   0.000000000000e+00   6.952685832977e+00   6.905359268188e+00   6.981323242188e+00   7.042021751404e+00 
  7.110381126404e+00   7.198165893555e+00   7.328093051910e+00   7.515770435333e+00   7.757723331451e+00   8.062848091125e+00   8.409665107727e+00   8.746770858765e+00   9.034690856934e+00 
  9.267433166504e+00   9.429874420166e+00   9.541580200195e+00   9.623997688293e+00   9.627240180969e+00   0.000000000000e+00   0.000000000000e+00   7.177193164825e+00   7.595075607300e+00 
  7.680593490601e+00   7.798407554626e+00   7.830444812775e+00   7.896365642548e+00   8.014896392822e+00   8.210571289062e+00   8.411577224731e+00   8.685628890991e+00   8.973778724670e+00 
  9.231496810913e+00   9.442369461060e+00   9.682398796082e+00   9.848882675171e+00   9.957531929016e+00   9.959250450134e+00   1.005205535889e+01   0.000000000000e+00   0.000000000000e+00 
  7.737732410431e+00   8.002571105957e+00   7.891107082367e+00   8.196521759033e+00   8.189602851868e+00   8.255508422852e+00   8.174786567688e+00   8.412867546082e+00   8.603245735168e+00 
  8.880106925964e+00   9.173977851868e+00   9.418880462646e+00   9.415223121643e+00   9.911917686462e+00   1.008265495300e+01   1.019469451904e+01   1.019380092621e+01   1.037363624573e+01 
  0.000000000000e+00   0.000000000000e+00   0.000000000000e+00   0.000000000000e+00   0.000000000000e+00   0.000000000000e+00   0.000000000000e+00   0.000000000000e+00   0.000000000000e+00 
  0.000000000000e+00   0.000000000000e+00   0.000000000000e+00   0.000000000000e+00   0.000000000000e+00   0.000000000000e+00   0.000000000000e+00   0.000000000000e+00   0.000000000000e+00 
  0.000000000000e+00   0.000000000000e+00   0.000000000000e+00   0.000000000000e+00   0.000000000000e+00   0.000000000000e+00   0.000000000000e+00   0.000000000000e+00   0.000000000000e+00 
  0.000000000000e+00   0.000000000000e+00   0.000000000000e+00   0.000000000000e+00   0.000000000000e+00   0.000000000000e+00   0.000000000000e+00   0.000000000000e+00   0.000000000000e+00 
  0.000000000000e+00   0.000000000000e+00   0.000000000000e+00   0.000000000000e+00   0.000000000000e+00   0.000000000000e+00   2.339039802551e+00   2.384041070938e+00   2.479557514191e+00 
  2.636546850204e+00   2.870579004288e+00   3.197935581207e+00   3.624657154083e+00   4.125881671906e+00   4.632847309113e+00   5.091184139252e+00   5.476540565491e+00   5.785820960999e+00 
  6.026144981384e+00   6.207799911499e+00   6.340769767761e+00   6.433378696442e+00   6.491646289825e+00   6.520518302917e+00   0.000000000000e+00   0.000000000000e+00   2.168360233307e+00 
  2.210524320602e+00   2.300635814667e+00   2.450730562210e+00   2.679706096649e+00   3.011960268021e+00   3.467566967010e+00   4.029018878937e+00   4.587093830109e+00   5.074904441833e+00 
  5.472973823547e+00   5.785598754883e+00   6.025031089783e+00   6.204342365265e+00   6.334830760956e+00   6.425385475159e+00   6.482211112976e+00   6.510472774506e+00   0.000000000000e+00 
  0.000000000000e+00   1.897061467171e+00   1.934013962746e+00   2.013873815536e+00   2.149708747864e+00   2.364479541779e+00   2.695145130157e+00   3.190853834152e+00   3.866825580597e+00 
  4.510588169098e+00   5.040526866913e+00   5.452662467957e+00   5.765734672546e+00   6.000362396240e+00   6.173656940460e+00   6.298656463623e+00   6.384925365448e+00   6.438839912415e+00 
  6.465860366821e+00   0.000000000000e+00   0.000000000000e+00   1.719929695129e+00   1.751417160034e+00   1.819987058640e+00   1.938216328621e+00   2.129903078079e+00   2.438420295715e+00 
  2.939333438873e+00   3.721659898758e+00   4.419278144836e+00   4.961191654205e+00   5.366715908051e+00   5.667295932770e+00   5.889057159424e+00   6.051182746887e+00   6.167338371277e+00 
  6.247160434723e+00   6.296851634979e+00   6.322108745575e+00   0.000000000000e+00   0.000000000000e+00   1.672330141068e+00   1.701836705208e+00   1.765833854675e+00   1.875591754913e+00 
  2.053252220154e+00   2.336331605911e+00   2.775302410126e+00   3.388625144958e+00   3.969008445740e+00   4.439790725708e+00   4.800246715546e+00   5.070421218872e+00   5.270816326141e+00 
  5.417665004730e+00   5.522973060608e+00   5.595384120941e+00   5.640384674072e+00   5.663795471191e+00   0.000000000000e+00   0.000000000000e+00   1.701391577721e+00   1.728148579597e+00 
  1.785653591156e+00   1.884328246117e+00   2.040044784546e+00   2.275372028351e+00   2.613306999207e+00   3.043853998184e+00   3.469943523407e+00   3.835950613022e+00   4.129166126251e+00 
  4.356049060822e+00   4.527919292450e+00   4.655489444733e+00   4.747632503510e+00   4.811237812042e+00   4.850739955902e+00   4.872091293335e+00   0.000000000000e+00   0.000000000000e+00 