# vtk DataFile Version 2.0
Written using VisIt writer
ASCII
DATASET RECTILINEAR_GRID
DIMENSIONS 20 20 20
X_COORDINATES 20 float
  0.000000000000e+00   1.000000000000e+00   2.000000000000e+00   3.000000000000e+00   4.000000000000e+00   5.000000000000e+00   6.000000000000e+00   7.000000000000e+00   8.000000000000e+00 
  9.000000000000e+00   1.000000000000e+01   1.100000000000e+01   1.200000000000e+01   1.300000000000e+01   1.400000000000e+01   1.500000000000e+01   1.600000000000e+01   1.700000000000e+01 
  1.800000000000e+01   1.900000000000e+01 
Y_COORDINATES 20 float
  0.000000000000e+00   1.000000000000e+00   2.000000000000e+00   3.000000000000e+00   4.000000000000e+00   5.000000000000e+00   6.000000000000e+00   7.000000000000e+00   8.000000000000e+00 
  9.000000000000e+00   1.000000000000e+01   1.100000000000e+01   1.200000000000e+01   1.300000000000e+01   1.400000000000e+01   1.500000000000e+01   1.600000000000e+01   1.700000000000e+01 
  1.800000000000e+01   1.900000000000e+01 
Z_COORDINATES 20 float
  0.000000000000e+00   1.000000000000e+00   2.000000000000e+00   3.000000000000e+00   4.000000000000e+00   5.000000000000e+00   6.000000000000e+00   7.000000000000e+00   8.000000000000e+00 
  9.000000000000e+00   1.000000000000e+01   1.100000000000e+01   1.200000000000e+01   1.300000000000e+01   1.400000000000e+01   1.500000000000e+01   1.600000000000e+01   1.700000000000e+01 
  1.800000000000e+01   1.900000000000e+01 
CELL_DATA 6859
POINT_DATA 8000
SCALARS pressure float
LOOKUP_TABLE default
  0.000000000000e+00   0.000000000000e+00   0.000000000000e+00   0.000000000000e+00   0.000000000000e+00   0.000000000000e+00   0.000000000000e+00   0.000000000000e+00   0.000000000000e+00 
  0.000000000000e+00   0.000000000000e+00   0.000000000000e+00   0.000000000000e+00   0.000000000000e+00   0.000000000000e+00   0.000000000000e+00   0.000000000000e+00   0.000000000000e+00 
  0.000000000000e+00   0.000000000000e+00   0.000000000000e+00   0.000000000000e+00   0.000000000000e+00   0.000000000000e+00   0.000000000000e+00   0.000000000000e+00   0.000000000000e+00 
  0.000000000000e+00   0.000000000000e+00   0.000000000000e+00   0.000000000000e+00   0.000000000000e+00   0.000000000000e+00   0.000000000000e+00   0.000000000000e+00   0.000000000000e+00 
  0.000000000000e+00   0.000000000000e+00   0.000000000000e+00   0.000000000000e+00   0.000000000000e+00   0.000000000000e+00   0.000000000000e+00   0.000000000000e+00   0.000000000000e+00 
  0.000000000000e+00   0.000000000000e+00   0.000000000000e+00   0.000000000000e+00   0.000000000000e+00   0.000000000000e+00   0.000000000000e+00   0.000000000000e+00   0.000000000000e+00 
  0.000000000000e+00   0.000000000000e+00   0.000000000000e+00   0.000000000000e+00   0.000000000000e+00   0.000000000000e+00   0.000000000000e+00   0.000000000000e+00   0.000000000000e+00 
  0.000000000000e+00   0.000000000000e+00   0.000000000000e+00   0.000000000000e+00   0.000000000000e+00   0.000000000000e+00   0.000000000000e+00   0.000000000000e+00   0.000000000000e+00 
  0.000000000000e+00   0.000000000000e+00   0.000000000000e+00   0.000000000000e+00   0.000000000000e+00   0.000000000000e+00   0.000000000000e+00   0.000000000000e+00   0.000000000000e+00 
  0.000000000000e+00   0.000000000000e+00   0.000000000000e+00   0.000000000000e+00   0.000000000000e+00   0.000000000000e+00   0.000000000000e+00   0.000000000000e+00   0.000000000000e+00 
  0.000000000000e+00   0.000000000000e+00   0.000000000000e+00   0.000000000000e+00   0.000000000000e+00   0.000000000000e+00   0.000000000000e+00   0.000000000000e+00   0.000000000000e+00 
  0.000000000000e+00   0.000000000000e+00   0.000000000000e+00   0.000000000000e+00   0.000000000000e+00   0.000000000000e+00   0.000000000000e+00   0.000000000000e+00   0.000000000000e+00 
  0.000000000000e+00   0.000000000000e+00   0.000000000000e+00   0.000000000000e+00   0.000000000000e+00   0.000000000000e+00   0.000000000000e+00   0.000000000000e+00   0.000000000000e+00 
  0.000000000000e+00   0.000000000000e+00   0.000000000000e+00   0.000000000000e+00   0.000000000000e+00   0.000000000000e+00   0.000000000000e+00   0.000000000000e+00   0.000000000000e+00 
  0.000000000000e+00   0.000000000000e+00   0.000000000000e+00   0.000000000000e+00   0.000000000000e+00   0.000000000000e+00   0.000000000000e+00   0.000000000000e+00   0.000000000000e+00 
  0.000000000000e+00   0.000000000000e+00   0.000000000000e+00   0.000000000000e+00   0.000000000000e+00   0.000000000000e+00   0.000000000000e+00   0.000000000000e+00   0.000000000000e+00 
  0.000000000000e+00   0.000000000000e+00   0.000000000000e+00   0.000000000000e+00   0.000000000000e+00   0.000000000000e+00   0.000000000000e+00   0.000000000000e+00   0.000000000000e+00 
  0.000000000000e+00   0.000000000000e+00   0.000000000000e+00   0.000000000000e+00   0.000000000000e+00   0.000000000000e+00   0.000000000000e+00   0.000000000000e+00   0.000000000000e+00 
  0.000000000000e+00   0.000000000000e+00   0.000000000000e+00   0.000000000000e+00   0.000000000000e+00   0.000000000000e+00   0.000000000000e+00   0.000000000000e+00   0.000000000000e+00 
  0.000000000000e+00   0.000000000000e+00   0.000000000000e+00   0.000000000000e+00   0.000000000000e+00   0.000000000000e+00   0.000000000000e+00   0.000000000000e+00   0.000000000000e+00 
  0.000000000000e+00   0.000000000000e+00   0.000000000000e+00   0.000000000000e+00   0.000000000000e+00   0.000000000000e+00   0.000000000000e+00   0.000000000000e+00   0.000000000000e+00 
  0.000000000000e+00   0.000000000000e+00   0.000000000000e+00   0.000000000000e+00   0.000000000000e+00   0.000000000000e+00   0.000000000000e+00   0.000000000000e+00   0.000000000000e+00 
  0.000000000000e+00   0.000000000000e+00   0.000000000000e+00   0.000000000000e+00   0.000000000000e+00   0.000000000000e+00   0.000000000000e+00   0.000000000000e+00   0.000000000000e+00 
  0.000000000000e+00   0.000000000000e+00   0.000000000000e+00   0.000000000000e+00   0.000000000000e+00   0.000000000000e+00   0.000000000000e+00   0.000000000000e+00   0.000000000000e+00 
  0.000000000000e+00   0.000000000000e+00   0.000000000000e+00   0.000000000000e+00   0.000000000000e+00   0.000000000000e+00   0.000000000000e+00   0.000000000000e+00   0.000000000000e+00 
  0.000000000000e+00   0.000000000000e+00   0.000000000000e+00   0.000000000000e+00   0.000000000000e+00   0.000000000000e+00   0.000000000000e+00   0.000000000000e+00   0.000000000000e+00 
  0.000000000000e+00   0.000000000000e+00   0.000000000000e+00   0.000000000000e+00   0.000000000000e+00   0.000000000000e+00   0.000000000000e+00   0.000000000000e+00   0.000000000000e+00 
  0.000000000000e+00   0.000000000000e+00   0.000000000000e+00   0.000000000000e+00   0.000000000000e+00   0.000000000000e+00   0.000000000000e+00   0.000000000000e+00   0.000000000000e+00 
  0.000000000000e+00   0.000000000000e+00   0.000000000000e+00   0.000000000000e+00   0.000000000000e+00   0.000000000000e+00   0.000000000000e+00   0.000000000000e+00   0.000000000000e+00 
  0.000000000000e+00   0.000000000000e+00   0.000000000000e+00   0.000000000000e+00   0.000000000000e+00   0.000000000000e+00   0.000000000000e+00   0.000000000000e+00   0.000000000000e+00 
  0.000000000000e+00   0.000000000000e+00   0.000000000000e+00   0.000000000000e+00   0.000000000000e+00   0.000000000000e+00   0.000000000000e+00   0.000000000000e+00   0.000000000000e+00 
  0.000000000000e+00   0.000000000000e+00   0.000000000000e+00   0.000000000000e+00   0.000000000000e+00   0.000000000000e+00   0.000000000000e+00   0.000000000000e+00   0.000000000000e+00 
  0.000000000000e+00   0.000000000000e+00   0.000000000000e+00   0.000000000000e+00   0.000000000000e+00   0.000000000000e+00   0.000000000000e+00   0.000000000000e+00   0.000000000000e+00 
  0.000000000000e+00   0.000000000000e+00   0.000000000000e+00   0.000000000000e+00   0.000000000000e+00   0.000000000000e+00   0.000000000000e+00   0.000000000000e+00   0.000000000000e+00 
  0.000000000000e+00   0.000000000000e+00   0.000000000000e+00   0.000000000000e+00   0.000000000000e+00   0.000000000000e+00   0.000000000000e+00   0.000000000000e+00   0.000000000000e+00 
  0.000000000000e+00   0.000000000000e+00   0.000000000000e+00   0.000000000000e+00   0.000000000000e+00   0.000000000000e+00   0.000000000000e+00   0.000000000000e+00   0.000000000000e+00 
  0.000000000000e+00   0.000000000000e+00   0.000000000000e+00   0.000000000000e+00   0.000000000000e+00   0.000000000000e+00   0.000000000000e+00   0.000000000000e+00   0.000000000000e+00 
  0.000000000000e+00   0.000000000000e+00   0.000000000000e+00   0.000000000000e+00   0.000000000000e+00   0.000000000000e+00   0.000000000000e+00   0.000000000000e+00   0.000000000000e+00 
  0.000000000000e+00   0.000000000000e+00   0.000000000000e+00   0.000000000000e+00   0.000000000000e+00   0.000000000000e+00   0.000000000000e+00   0.000000000000e+00   0.000000000000e+00 
  0.000000000000e+00   0.000000000000e+00   0.000000000000e+00   0.000000000000e+00   0.000000000000e+00   0.000000000000e+00   0.000000000000e+00   0.000000000000e+00   0.000000000000e+00 
  0.000000000000e+00   0.000000000000e+00   0.000000000000e+00   0.000000000000e+00   0.000000000000e+00   0.000000000000e+00   0.000000000000e+00   0.000000000000e+00   0.000000000000e+00 
  0.000000000000e+00   0.000000000000e+00   0.000000000000e+00   0.000000000000e+00   0.000000000000e+00   0.000000000000e+00   0.000000000000e+00   0.000000000000e+00   0.000000000000e+00 
  0.000000000000e+00   0.000000000000e+00   0.000000000000e+00   0.000000000000e+00   0.000000000000e+00   0.000000000000e+00   0.000000000000e+00   0.000000000000e+00   0.000000000000e+00 
  0.000000000000e+00   0.000000000000e+00   0.000000000000e+00   0.000000000000e+00   0.000000000000e+00   0.000000000000e+00   0.000000000000e+00   0.000000000000e+00   0.000000000000e+00 
  0.000000000000e+00   0.000000000000e+00   0.000000000000e+00   0.000000000000e+00   0.000000000000e+00   0.000000000000e+00   0.000000000000e+00   0.000000000000e+00   0.000000000000e+00 
  0.000000000000e+00   0.000000000000e+00   0.000000000000e+00   0.000000000000e+00   0.000000000000e+00   0.000000000000e+00   0.000000000000e+00   0.000000000000e+00   0.000000000000e+00 
  0.000000000000e+00   0.000000000000e+00   0.000000000000e+00   0.000000000000e+00   0.000000000000e+00   0.000000000000e+00   0.000000000000e+00   3.390600442886e+00   3.581227064133e+00 
  3.756652593613e+00   3.831005334854e+00   3.836784124374e+00   3.803302526474e+00   3.785006284714e+00   3.780714750290e+00   3.851316452026e+00   3.835353136063e+00   3.862073183060e+00 
  3.853199958801e+00   3.827085494995e+00   3.801624536514e+00   3.781221389771e+00   3.780272722244e+00   3.756241559982e+00   3.804842948914e+00   0.000000000000e+00   0.000000000000e+00 
  3.404201984406e+00   3.580904245377e+00   3.755924701691e+00   3.848960638046e+00   3.857724905014e+00   3.810761451721e+00   3.767849683762e+00   3.758303165436e+00   3.806966066360e+00 
  3.861624717712e+00   3.902934551239e+00   3.901255846024e+00   3.877730607986e+00   3.841271638870e+00   3.817929029465e+00   3.818668842316e+00   3.800288438797e+00   3.838619947433e+00 
  0.000000000000e+00   0.000000000000e+00   3.487609624863e+00   3.607105970383e+00   3.727264165878e+00   3.813736677170e+00   3.839224338531e+00   3.785662412643e+00   3.698677301407e+00 
  3.715482711792e+00   3.776081800461e+00   3.855378150940e+00   3.906658411026e+00   3.899108409882e+00   3.864110469818e+00   3.817615985870e+00   3.776739597321e+00   3.785316944122e+00 
  3.746018886566e+00   3.789243936539e+00   0.000000000000e+00   0.000000000000e+00   3.704043388367e+00   3.783293962479e+00   3.876531839371e+00   3.914033412933e+00   3.909009933472e+00 
  3.825719356537e+00   3.723632335663e+00   3.774356603622e+00   3.875575304031e+00   3.934492349625e+00   3.960202455521e+00   3.954892396927e+00   3.913181066513e+00   3.861631870270e+00 
  3.866936445236e+00   3.825539588928e+00   3.819282531738e+00   3.863777160645e+00   0.000000000000e+00   0.000000000000e+00   3.892354965210e+00   3.987847566605e+00   4.074827194214e+00 
  4.169550895691e+00   4.144095420837e+00   4.029416084290e+00   3.964218854904e+00   4.025364398956e+00   4.074986457825e+00   4.174100875854e+00   4.246339321136e+00   4.231836795807e+00 
  4.138710498810e+00   4.035750389099e+00   3.902747154236e+00   3.850976943970e+00   3.834384679794e+00   3.900541782379e+00   0.000000000000e+00   0.000000000000e+00   4.078891754150e+00 
  4.146371841431e+00   4.184586048126e+00   4.263924598694e+00   4.274909973145e+00   4.210058689117e+00   4.184801101685e+00   4.249319553375e+00   4.351633071899e+00   4.458486080170e+00 
  4.514967918396e+00   4.484493255615e+00   4.333190441132e+00   4.196451663971e+00   4.080767631531e+00   3.969240427017e+00   3.913753271103e+00   3.997329711914e+00   0.000000000000e+00 
  0.000000000000e+00   4.446318626404e+00   4.564736366272e+00   4.639473915100e+00   4.681280612946e+00   4.680597305298e+00   4.647302150726e+00   4.645161151886e+00   4.705690383911e+00 
  4.799311637878e+00   4.871253967285e+00   4.989690303802e+00   4.904072761536e+00   4.666852474213e+00   4.450158119202e+00   4.257427692413e+00   4.113205909729e+00   4.036435127258e+00 
  4.060052394867e+00   0.000000000000e+00   0.000000000000e+00   4.986317157745e+00   5.039159774780e+00   5.084291458130e+00   5.092782020569e+00   5.074026107788e+00   5.046580314636e+00 
  5.043959617615e+00   5.157318592072e+00   5.304149627686e+00   5.528380870819e+00   5.929422378540e+00   5.791330337524e+00   5.297101020813e+00   4.954713344574e+00   4.766757488251e+00 
  4.614614009857e+00   4.497880935669e+00   4.447965621948e+00   0.000000000000e+00   0.000000000000e+00   5.505297660828e+00   5.537928104401e+00   5.527838706970e+00   5.465424060822e+00 
  5.378722190857e+00   5.309429645538e+00   5.378005981445e+00   5.571117401123e+00   5.958243370056e+00   6.544003963470e+00   7.066444873810e+00   6.529642581940e+00   5.867069244385e+00 
  5.549355030060e+00   5.116388797760e+00   4.845447063446e+00   4.695484161377e+00   4.683054447174e+00   0.000000000000e+00   0.000000000000e+00   6.085638523102e+00   6.069891452789e+00 
  6.013452529907e+00   5.910625934601e+00   5.746257781982e+00   5.568427085876e+00   5.651080608368e+00   5.985194206238e+00   6.670065879822e+00   7.735713481903e+00   8.757039070129e+00 
  7.370906829834e+00   6.332896709442e+00   6.070799827576e+00   5.492585659027e+00   5.198658466339e+00   5.064646244049e+00   4.929092407227e+00   0.000000000000e+00   0.000000000000e+00 
  6.620947360992e+00   6.578931331635e+00   6.425213336945e+00   6.155125141144e+00   5.744211196899e+00   5.261928558350e+00   5.397814750671e+00   6.104992389679e+00   6.742455005646e+00 
  7.238849163055e+00   7.392968654633e+00   6.323906898499e+00   5.821947574615e+00   5.586353778839e+00   5.134935855865e+00   4.623797416687e+00   4.574183464050e+00   4.329536914825e+00 
  0.000000000000e+00   0.000000000000e+00   7.142875194550e+00   7.036086559296e+00   6.830990791321e+00   6.475665092468e+00   5.891685009003e+00   4.736420631409e+00   4.656239032745e+00 
  6.820441722870e+00   8.641392707825e+00   7.915846824646e+00   6.876750469208e+00   5.479979991913e+00   5.748219966888e+00   5.644540786743e+00   5.389817714691e+00   4.796036243439e+00 
  5.427046775818e+00   4.115487098694e+00   0.000000000000e+00   0.000000000000e+00   7.463092803955e+00   7.366523265839e+00   7.101348400116e+00   6.635233879089e+00   5.507734298706e+00 
  5.992290019989e+00   3.600817918777e+00   7.175236225128e+00   1.088910865784e+01   8.830794334412e+00   6.178143978119e+00   5.776151657104e+00   4.816545963287e+00   5.327149391174e+00 
  4.853035926819e+00   6.903110980988e+00   5.305384635925e+00   3.080583333969e+00   0.000000000000e+00   0.000000000000e+00   7.731064796448e+00   7.608416080475e+00   7.337226390839e+00 
  6.877527713776e+00   6.288431644440e+00   5.098922252655e+00   4.929940223694e+00   6.836418151855e+00   8.512198448181e+00   7.613552093506e+00   6.450330734253e+00   5.110902786255e+00 
  5.405933856964e+00   5.324858188629e+00   4.877250194550e+00   3.776816129684e+00   3.810181617737e+00   3.032768487930e+00   0.000000000000e+00   0.000000000000e+00   7.979531764984e+00 
  7.868671417236e+00   7.710811138153e+00   7.478556632996e+00   7.117824554443e+00   6.671626091003e+00   6.647330284119e+00   7.197685718536e+00   7.577563762665e+00   7.318132877350e+00 
  6.773892879486e+00   6.182510375977e+00   6.042015075684e+00   5.831293582916e+00   5.456846237183e+00   4.925314426422e+00   4.618325710297e+00   4.345359802246e+00   0.000000000000e+00 
  0.000000000000e+00   8.006581306458e+00   8.008149147034e+00   7.905798912048e+00   7.694160938263e+00   7.447846889496e+00   7.220304489136e+00   7.158137798309e+00   7.248023986816e+00 
  7.288466930389e+00   7.135086059570e+00   6.832697391510e+00   6.518094062805e+00   6.307037353516e+00   6.086164951324e+00   5.800984382629e+00   5.477431297302e+00   5.266766071320e+00 
  5.152637481689e+00   0.000000000000e+00   0.000000000000e+00   8.471487998962e+00   8.341404914856e+00   8.101953506470e+00   7.942546367645e+00   7.804635524750e+00   7.680253028870e+00 
  7.649408340454e+00   7.607283592224e+00   7.552937507629e+00   7.380803585052e+00   7.121448993683e+00   6.881155490875e+00   6.634349822998e+00   6.377968788147e+00   6.128301620483e+00 
  5.906534194946e+00   5.813894271851e+00   5.804955482483e+00   0.000000000000e+00   0.000000000000e+00   8.111564636230e+00   7.925041198730e+00   7.963875293732e+00   7.855636596680e+00 
  7.644985198975e+00   7.436745166779e+00   7.201941967010e+00   7.075113296509e+00   6.918218612671e+00   6.794355392456e+00   6.673544406891e+00   6.493325233459e+00   6.342874050140e+00 
  6.220149040222e+00   6.059453010559e+00   5.862588882446e+00   5.600050926208e+00   5.465897083282e+00   0.000000000000e+00   0.000000000000e+00   0.000000000000e+00   0.000000000000e+00 
  0.000000000000e+00   0.000000000000e+00   0.000000000000e+00   0.000000000000e+00   0.000000000000e+00   0.000000000000e+00   0.000000000000e+00   0.000000000000e+00   0.000000000000e+00 
  0.000000000000e+00   0.000000000000e+00   0.000000000000e+00   0.000000000000e+00   0.000000000000e+00   0.000000000000e+00   0.000000000000e+00   0.000000000000e+00   0.000000000000e+00 
  0.000000000000e+00   0.000000000000e+00   0.000000000000e+00   0.000000000000e+00   0.000000000000e+00   0.000000000000e+00   0.000000000000e+00   0.000000000000e+00   0.000000000000e+00 
  0.000000000000e+00   0.000000000000e+00   0.000000000000e+00   0.000000000000e+00   0.000000000000e+00   0.000000000000e+00   0.000000000000e+00   0.000000000000e+00   0.000000000000e+00 
  0.000000000000e+00   0.000000000000e+00   2.223146200180e+00   2.487763643265e+00   2.795388221741e+00   2.885607957840e+00   2.849849224091e+00   2.787009239197e+00   2.712526559830e+00 
  2.673335075378e+00   2.772250652313e+00   2.824304580688e+00   2.863538503647e+00   2.804877996445e+00   2.753125190735e+00   2.713513135910e+00   2.682424783707e+00   2.679118871689e+00 
  2.648362398148e+00   2.674132585526e+00   0.000000000000e+00   0.000000000000e+00   2.121800184250e+00   2.452778339386e+00   2.738030433655e+00   2.855336666107e+00   2.842899799347e+00 
  2.758682966232e+00   2.646116495132e+00   2.656070947647e+00   2.654445886612e+00   2.821563005447e+00   2.870740175247e+00   2.846250295639e+00   2.794201612473e+00   2.745035409927e+00 
  2.730687856674e+00   2.752740859985e+00   2.742325305939e+00   2.762963771820e+00   0.000000000000e+00   0.000000000000e+00   2.389590978622e+00   2.598242521286e+00   2.774124622345e+00 
  2.850091695786e+00   2.831637620926e+00   2.710992574692e+00   2.565277814865e+00   2.550984621048e+00   2.727653980255e+00   2.849473953247e+00   2.913507938385e+00   2.915685415268e+00 
  2.865128278732e+00   2.804320812225e+00   2.768907785416e+00   2.825102806091e+00   2.786864519119e+00   2.830487966537e+00   0.000000000000e+00   0.000000000000e+00   2.570068120956e+00 
  2.701232194901e+00   2.824237108231e+00   2.891096591949e+00   2.850995540619e+00   2.765881299973e+00   2.409245491028e+00   2.559158563614e+00   2.750330924988e+00   2.782316207886e+00 
  2.888071537018e+00   2.900375366211e+00   2.858503580093e+00   2.804309844971e+00   2.790769577026e+00   2.759186744690e+00   2.752105951309e+00   2.821747779846e+00   0.000000000000e+00 
  0.000000000000e+00   2.746272563934e+00   2.850472211838e+00   2.920532226562e+00   3.025508165359e+00   2.954081296921e+00   2.892416954041e+00   2.554028034210e+00   2.808083295822e+00 
  2.831460952759e+00   2.985788822174e+00   3.100238561630e+00   3.075901746750e+00   2.931766271591e+00   2.795338869095e+00   2.686785221100e+00   2.631999492645e+00   2.641186952591e+00 
  2.801695346832e+00   0.000000000000e+00   0.000000000000e+00   3.077010869980e+00   3.106367111206e+00   3.004428625107e+00   3.259166002274e+00   3.241292238235e+00   3.122067451477e+00 
  3.135476350784e+00   3.197133064270e+00   3.292772531509e+00   3.366027832031e+00   3.451153755188e+00   3.423011779785e+00   3.147637128830e+00   2.968370914459e+00   2.786682844162e+00 
  2.574238061905e+00   2.500719070435e+00   2.813271760941e+00   0.000000000000e+00   0.000000000000e+00   3.166461229324e+00   3.437694072723e+00   3.546888828278e+00   3.637320995331e+00 
  3.598306894302e+00   3.547709941864e+00   3.472186326981e+00   3.524376869202e+00   3.560526132584e+00   3.743364572525e+00   4.141852855682e+00   4.084344387054e+00   3.634615182877e+00 
  3.310440778732e+00   3.127040386200e+00   2.977203845978e+00   3.004769802094e+00   3.117723226547e+00   0.000000000000e+00   0.000000000000e+00   3.970194816589e+00   4.038026809692e+00 
  4.109278678894e+00   4.149030208588e+00   4.126576900482e+00   4.024375438690e+00   3.958751678467e+00   4.062746047974e+00   4.148620605469e+00   4.464700698853e+00   5.381461620331e+00 
  5.375046253204e+00   4.520367622375e+00   3.911926031113e+00   3.657046079636e+00   3.561233758926e+00   3.685611486435e+00   3.699964523315e+00   0.000000000000e+00   0.000000000000e+00 
  4.462348461151e+00   4.545458316803e+00   4.573076725006e+00   4.521136283875e+00   4.445776939392e+00   4.326712131500e+00   4.397492408752e+00   4.476362705231e+00   4.756609916687e+00 
  5.190046310425e+00   5.688070774078e+00   5.451531410217e+00   4.922452926636e+00   4.646788597107e+00   4.336162567139e+00   4.090501308441e+00   3.939450025558e+00   3.936371564865e+00 
  0.000000000000e+00   0.000000000000e+00   5.158263206482e+00   5.176642894745e+00   5.150672912598e+00   5.066061496735e+00   4.981428623199e+00   4.796728610992e+00   4.896283626556e+00 
  4.987594127655e+00   5.431879520416e+00   5.956474304199e+00   6.329507827759e+00   5.753999233246e+00   5.229528427124e+00   5.082633972168e+00   4.683078289032e+00   4.345794200897e+00 
  4.155145645142e+00   4.088848590851e+00   0.000000000000e+00   0.000000000000e+00   5.827264785767e+00   5.809429168701e+00   5.640707969666e+00   5.377883434296e+00   5.088248729706e+00 
  4.738609790802e+00   4.804480552673e+00   5.232590198517e+00   5.667768955231e+00   5.907782554626e+00   5.923236370087e+00   5.522407531738e+00   5.275130271912e+00   4.983448505402e+00 
  4.617542266846e+00   4.297255992889e+00   4.154804229736e+00   4.076604366302e+00   0.000000000000e+00   0.000000000000e+00   6.327108383179e+00   6.213078498840e+00   5.994393825531e+00 
  5.732630252838e+00   5.260873794556e+00   4.838682174683e+00   4.738986492157e+00   5.616300582886e+00   6.492726325989e+00   6.288312435150e+00   5.819593429565e+00   5.247922897339e+00 
  5.128146648407e+00   4.893570423126e+00   4.575740337372e+00   4.298853397369e+00   4.287644386292e+00   3.911077976227e+00   0.000000000000e+00   0.000000000000e+00   6.686574459076e+00 
  6.560381412506e+00   6.305565357208e+00   6.015820980072e+00   5.397489070892e+00   4.500051975250e+00   4.274212360382e+00   6.030826568604e+00   7.487545967102e+00   6.780507087708e+00 
  5.734560966492e+00   4.477304935455e+00   4.831200599670e+00   4.744668960571e+00   4.481063842773e+00   3.644977331161e+00   3.759376049042e+00   3.050577402115e+00   0.000000000000e+00 
  0.000000000000e+00   6.894803524017e+00   6.788027286530e+00   6.535851478577e+00   6.140672683716e+00   5.683917999268e+00   5.157100200653e+00   5.079859256744e+00   5.813376903534e+00 
  6.528724670410e+00   6.163452148438e+00   5.588334083557e+00   4.993955135345e+00   4.811649799347e+00   4.618659973145e+00   4.145110607147e+00   3.021793603897e+00   3.274635076523e+00 
  2.363147735596e+00   0.000000000000e+00   0.000000000000e+00   7.116203308105e+00   6.985338211060e+00   6.822525501251e+00   6.607552528381e+00   6.321614265442e+00   6.030213832855e+00 
  5.955793857574e+00   6.211023330688e+00   6.409968376160e+00   6.221866130829e+00   5.856935501099e+00   5.469397544861e+00   5.251291275024e+00   5.007354259491e+00   4.652441024780e+00 
  4.112814426422e+00   3.429278373718e+00   3.586547851562e+00   0.000000000000e+00   0.000000000000e+00   7.170820713043e+00   7.131412029266e+00   7.003647804260e+00   6.811855792999e+00 
  6.588201999664e+00   6.395453929901e+00   6.302223682404e+00   6.306752204895e+00   6.280748844147e+00   6.126665592194e+00   5.883264064789e+00   5.631933689117e+00   5.426618576050e+00 
  5.212793827057e+00   4.949195384979e+00   4.636866569519e+00   4.368880748749e+00   4.299249172211e+00   0.000000000000e+00   0.000000000000e+00   7.541156768799e+00   7.390844821930e+00 
  7.181638717651e+00   7.038651466370e+00   6.911237239838e+00   6.797702789307e+00   6.729686260223e+00   6.675095081329e+00   6.546215057373e+00   6.361590862274e+00   6.133664131165e+00 
  5.918790340424e+00   5.690514564514e+00   5.462741374969e+00   5.228526592255e+00   5.011619567871e+00   4.883680343628e+00   4.863030910492e+00   0.000000000000e+00   0.000000000000e+00 
  6.978857994080e+00   7.024935245514e+00   7.071465969086e+00   6.949105262756e+00   6.755414962769e+00   6.551771640778e+00   6.345288276672e+00   6.168235301971e+00   6.029123306274e+00 
  5.889201164246e+00   5.773762226105e+00   5.618470668793e+00   5.486340522766e+00   5.349997520447e+00   5.203305721283e+00   5.032484531403e+00   4.836501598358e+00   4.731863975525e+00 
  0.000000000000e+00   0.000000000000e+00   0.000000000000e+00   0.000000000000e+00   0.000000000000e+00   0.000000000000e+00   0.000000000000e+00   0.000000000000e+00   0.000000000000e+00 
  0.000000000000e+00   0.000000000000e+00   0.000000000000e+00   0.000000000000e+00   0.000000000000e+00   0.000000000000e+00   0.000000000000e+00   0.000000000000e+00   0.000000000000e+00 
  0.000000000000e+00   0.000000000000e+00   0.000000000000e+00   0.000000000000e+00   0.000000000000e+00   0.000000000000e+00   0.000000000000e+00   0.000000000000e+00   0.000000000000e+00 
  0.000000000000e+00   0.000000000000e+00   0.000000000000e+00   0.000000000000e+00   0.000000000000e+00   0.000000000000e+00   0.000000000000e+00   0.000000000000e+00   0.000000000000e+00 
  0.000000000000e+00   0.000000000000e+00   0.000000000000e+00   0.000000000000e+00   0.000000000000e+00   0.000000000000e+00   1.100799798965e+00   1.520507574081e+00   2.077022790909e+00 
  2.032541036606e+00   1.900929093361e+00   1.761967897415e+00   1.667481303215e+00   1.645187020302e+00   1.745156288147e+00   1.802037715912e+00   1.942049622536e+00   1.779961824417e+00 
  1.698308587074e+00   1.613088369370e+00   1.583207726479e+00   1.602247357368e+00   1.565469980240e+00   1.620702028275e+00   0.000000000000e+00   0.000000000000e+00   2.578889608383e+00 
  1.420648097992e+00   1.831254720688e+00   1.889249205589e+00   1.838203668594e+00   1.749160051346e+00   1.537093520164e+00   1.550065755844e+00   1.612763047218e+00   1.772658586502e+00 
  1.813680291176e+00   1.802828192711e+00   1.726124525070e+00   1.613820552826e+00   1.618610262871e+00   1.744511365891e+00   1.760476350784e+00   1.766873955727e+00   0.000000000000e+00 
  0.000000000000e+00   1.193439960480e+00   1.500904679298e+00   1.722357392311e+00   1.864181518555e+00   1.814183354378e+00   1.603685855865e+00   1.153019189835e+00   1.298178672791e+00 
  1.432773590088e+00   1.700513601303e+00   1.858996510506e+00   1.842357873917e+00   1.821472883224e+00   1.725973963737e+00   1.767625331879e+00   2.051710844040e+00   1.884765744209e+00 
  1.877754807472e+00   0.000000000000e+00   0.000000000000e+00   1.520116567612e+00   1.730847001076e+00   1.846261739731e+00   1.929010272026e+00   1.849119901657e+00   1.524020195007e+00 
  1.060478210449e+00   1.305077314377e+00   1.493737459183e+00   1.824923038483e+00   1.928016066551e+00   1.920844197273e+00   1.832860589027e+00   1.753478169441e+00   1.726619482040e+00 
  1.764183878899e+00   1.736782431602e+00   1.844419956207e+00   0.000000000000e+00   0.000000000000e+00   1.178950190544e+00   1.598441004753e+00   1.777539253235e+00   1.967419028282e+00 
  1.867821216583e+00   1.541859626770e+00   9.563387036324e-01   1.364937186241e+00   1.525076389313e+00   1.890906214714e+00   2.035689353943e+00   2.003040790558e+00   1.771155357361e+00 
  1.599467277527e+00   1.469965100288e+00   1.352379322052e+00   1.363969206810e+00   1.715615153313e+00   0.000000000000e+00   0.000000000000e+00   5.607051849365e-01   1.535716533661e+00 
  2.759537935257e+00   2.164902448654e+00   2.267185211182e+00   1.885014176369e+00   1.626172780991e+00   1.839871168137e+00   1.771774053574e+00   1.889262795448e+00   2.137170076370e+00 
  2.169804096222e+00   1.979737758636e+00   1.912031292915e+00   2.422020196915e+00   1.762699842453e+00   2.166465520859e+00   1.544605493546e+00   0.000000000000e+00   0.000000000000e+00 