# vtk DataFile Version 2.0
Written using VisIt writer
ASCII
DATASET RECTILINEAR_GRID
DIMENSIONS 20 20 20
X_COORDINATES 20 float
  0.000000000000e+00   1.000000000000e+00   2.000000000000e+00   3.000000000000e+00   4.000000000000e+00   5.000000000000e+00   6.000000000000e+00   7.000000000000e+00   8.000000000000e+00 
  9.000000000000e+00   1.000000000000e+01   1.100000000000e+01   1.200000000000e+01   1.300000000000e+01   1.400000000000e+01   1.500000000000e+01   1.600000000000e+01   1.700000000000e+01 
  1.800000000000e+01   1.900000000000e+01 
Y_COORDINATES 20 float
  0.000000000000e+00   1.000000000000e+00   2.000000000000e+00   3.000000000000e+00   4.000000000000e+00   5.000000000000e+00   6.000000000000e+00   7.000000000000e+00   8.000000000000e+00 
  9.000000000000e+00   1.000000000000e+01   1.100000000000e+01   1.200000000000e+01   1.300000000000e+01   1.400000000000e+01   1.500000000000e+01   1.600000000000e+01   1.700000000000e+01 
  1.800000000000e+01   1.900000000000e+01 
Z_COORDINATES 20 float
  0.000000000000e+00   1.000000000000e+00   2.000000000000e+00   3.000000000000e+00   4.000000000000e+00   5.000000000000e+00   6.000000000000e+00   7.000000000000e+00   8.000000000000e+00 
  9.000000000000e+00   1.000000000000e+01   1.100000000000e+01   1.200000000000e+01   1.300000000000e+01   1.400000000000e+01   1.500000000000e+01   1.600000000000e+01   1.700000000000e+01 
  1.800000000000e+01   1.900000000000e+01 
CELL_DATA 6859
POINT_DATA 8000
SCALARS pressure float
LOOKUP_TABLE default
  0.000000000000e+00   0.000000000000e+00   0.000000000000e+00   0.000000000000e+00   0.000000000000e+00   0.000000000000e+00   0.000000000000e+00   0.000000000000e+00   0.000000000000e+00 
  0.000000000000e+00   0.000000000000e+00   0.000000000000e+00   0.000000000000e+00   0.000000000000e+00   0.000000000000e+00   0.000000000000e+00   0.000000000000e+00   0.000000000000e+00 
  0.000000000000e+00   0.000000000000e+00   0.000000000000e+00   0.000000000000e+00   0.000000000000e+00   0.000000000000e+00   0.000000000000e+00   0.000000000000e+00   0.000000000000e+00 
  0.000000000000e+00   0.000000000000e+00   0.000000000000e+00   0.000000000000e+00   0.000000000000e+00   0.000000000000e+00   0.000000000000e+00   0.000000000000e+00   0.000000000000e+00 
  0.000000000000e+00   0.000000000000e+00   0.000000000000e+00   0.000000000000e+00   0.000000000000e+00   0.000000000000e+00   0.000000000000e+00   0.000000000000e+00   0.000000000000e+00 
  0.000000000000e+00   0.000000000000e+00   0.000000000000e+00   0.000000000000e+00   0.000000000000e+00   0.000000000000e+00   0.000000000000e+00   0.000000000000e+00   0.000000000000e+00 
  0.000000000000e+00   0.000000000000e+00   0.000000000000e+00   0.000000000000e+00   0.000000000000e+00   0.000000000000e+00   0.000000000000e+00   0.000000000000e+00   0.000000000000e+00 
  0.000000000000e+00   0.000000000000e+00   0.000000000000e+00   0.000000000000e+00   0.000000000000e+00   0.000000000000e+00   0.000000000000e+00   0.000000000000e+00   0.000000000000e+00 
  0.000000000000e+00   0.000000000000e+00   0.000000000000e+00   0.000000000000e+00   0.000000000000e+00   0.000000000000e+00   0.000000000000e+00   0.000000000000e+00   0.000000000000e+00 
  0.000000000000e+00   0.000000000000e+00   0.000000000000e+00   0.000000000000e+00   0.000000000000e+00   0.000000000000e+00   0.000000000000e+00   0.000000000000e+00   0.000000000000e+00 
  0.000000000000e+00   0.000000000000e+00   0.000000000000e+00   0.000000000000e+00   0.000000000000e+00   0.000000000000e+00   0.000000000000e+00   0.000000000000e+00   0.000000000000e+00 
  0.000000000000e+00   0.000000000000e+00   0.000000000000e+00   0.000000000000e+00   0.000000000000e+00   0.000000000000e+00   0.000000000000e+00   0.000000000000e+00   0.000000000000e+00 
  0.000000000000e+00   0.000000000000e+00   0.000000000000e+00   0.000000000000e+00   0.000000000000e+00   0.000000000000e+00   0.000000000000e+00   0.000000000000e+00   0.000000000000e+00 
  0.000000000000e+00   0.000000000000e+00   0.000000000000e+00   0.000000000000e+00   0.000000000000e+00   0.000000000000e+00   0.000000000000e+00   0.000000000000e+00   0.000000000000e+00 
  0.000000000000e+00   0.000000000000e+00   0.000000000000e+00   0.000000000000e+00   0.000000000000e+00   0.000000000000e+00   0.000000000000e+00   0.000000000000e+00   0.000000000000e+00 
  0.000000000000e+00   0.000000000000e+00   0.000000000000e+00   0.000000000000e+00   0.000000000000e+00   0.000000000000e+00   0.000000000000e+00   0.000000000000e+00   0.000000000000e+00 
  0.000000000000e+00   0.000000000000e+00   0.000000000000e+00   0.000000000000e+00   0.000000000000e+00   0.000000000000e+00   0.000000000000e+00   0.000000000000e+00   0.000000000000e+00 
  0.000000000000e+00   0.000000000000e+00   0.000000000000e+00   0.000000000000e+00   0.000000000000e+00   0.000000000000e+00   0.000000000000e+00   0.000000000000e+00   0.000000000000e+00 
  0.000000000000e+00   0.000000000000e+00   0.000000000000e+00   0.000000000000e+00   0.000000000000e+00   0.000000000000e+00   0.000000000000e+00   0.000000000000e+00   0.000000000000e+00 
  0.000000000000e+00   0.000000000000e+00   0.000000000000e+00   0.000000000000e+00   0.000000000000e+00   0.000000000000e+00   0.000000000000e+00   0.000000000000e+00   0.000000000000e+00 
  0.000000000000e+00   0.000000000000e+00   0.000000000000e+00   0.000000000000e+00   0.000000000000e+00   0.000000000000e+00   0.000000000000e+00   0.000000000000e+00   0.000000000000e+00 
  0.000000000000e+00   0.000000000000e+00   0.000000000000e+00   0.000000000000e+00   0.000000000000e+00   0.000000000000e+00   0.000000000000e+00   0.000000000000e+00   0.000000000000e+00 
  0.000000000000e+00   0.000000000000e+00   0.000000000000e+00   0.000000000000e+00   0.000000000000e+00   0.000000000000e+00   0.000000000000e+00   0.000000000000e+00   0.000000000000e+00 
  0.000000000000e+00   0.000000000000e+00   0.000000000000e+00   0.000000000000e+00   0.000000000000e+00   0.000000000000e+00   0.000000000000e+00   0.000000000000e+00   0.000000000000e+00 
  0.000000000000e+00   0.000000000000e+00   0.000000000000e+00   0.000000000000e+00   0.000000000000e+00   0.000000000000e+00   0.000000000000e+00   0.000000000000e+00   0.000000000000e+00 
  0.000000000000e+00   0.000000000000e+00   0.000000000000e+00   0.000000000000e+00   0.000000000000e+00   0.000000000000e+00   0.000000000000e+00   0.000000000000e+00   0.000000000000e+00 
  0.000000000000e+00   0.000000000000e+00   0.000000000000e+00   0.000000000000e+00   0.000000000000e+00   0.000000000000e+00   0.000000000000e+00   0.000000000000e+00   0.000000000000e+00 
  0.000000000000e+00   0.000000000000e+00   0.000000000000e+00   0.000000000000e+00   0.000000000000e+00   0.000000000000e+00   0.000000000000e+00   0.000000000000e+00   0.000000000000e+00 
  0.000000000000e+00   0.000000000000e+00   0.000000000000e+00   0.000000000000e+00   0.000000000000e+00   0.000000000000e+00   0.000000000000e+00   0.000000000000e+00   0.000000000000e+00 
  0.000000000000e+00   0.000000000000e+00   0.000000000000e+00   0.000000000000e+00   0.000000000000e+00   0.000000000000e+00   0.000000000000e+00   0.000000000000e+00   0.000000000000e+00 
  0.000000000000e+00   0.000000000000e+00   0.000000000000e+00   0.000000000000e+00   0.000000000000e+00   0.000000000000e+00   0.000000000000e+00   0.000000000000e+00   0.000000000000e+00 
  0.000000000000e+00   0.000000000000e+00   0.000000000000e+00   0.000000000000e+00   0.000000000000e+00   0.000000000000e+00   0.000000000000e+00   0.000000000000e+00   0.000000000000e+00 
  0.000000000000e+00   0.000000000000e+00   0.000000000000e+00   0.000000000000e+00   0.000000000000e+00   0.000000000000e+00   0.000000000000e+00   0.000000000000e+00   0.000000000000e+00 
  0.000000000000e+00   0.000000000000e+00   0.000000000000e+00   0.000000000000e+00   0.000000000000e+00   0.000000000000e+00   0.000000000000e+00   0.000000000000e+00   0.000000000000e+00 
  0.000000000000e+00   0.000000000000e+00   0.000000000000e+00   0.000000000000e+00   0.000000000000e+00   0.000000000000e+00   0.000000000000e+00   0.000000000000e+00   0.000000000000e+00 
  0.000000000000e+00   0.000000000000e+00   0.000000000000e+00   0.000000000000e+00   0.000000000000e+00   0.000000000000e+00   0.000000000000e+00   0.000000000000e+00   0.000000000000e+00 
  0.000000000000e+00   0.000000000000e+00   0.000000000000e+00   0.000000000000e+00   0.000000000000e+00   0.000000000000e+00   0.000000000000e+00   0.000000000000e+00   0.000000000000e+00 
  0.000000000000e+00   0.000000000000e+00   0.000000000000e+00   0.000000000000e+00   0.000000000000e+00   0.000000000000e+00   0.000000000000e+00   0.000000000000e+00   0.000000000000e+00 
  0.000000000000e+00   0.000000000000e+00   0.000000000000e+00   0.000000000000e+00   0.000000000000e+00   0.000000000000e+00   0.000000000000e+00   0.000000000000e+00   0.000000000000e+00 
  0.000000000000e+00   0.000000000000e+00   0.000000000000e+00   0.000000000000e+00   0.000000000000e+00   0.000000000000e+00   0.000000000000e+00   0.000000000000e+00   0.000000000000e+00 
  0.000000000000e+00   0.000000000000e+00   0.000000000000e+00   0.000000000000e+00   0.000000000000e+00   0.000000000000e+00   0.000000000000e+00   0.000000000000e+00   0.000000000000e+00 
  0.000000000000e+00   0.000000000000e+00   0.000000000000e+00   0.000000000000e+00   0.000000000000e+00   0.000000000000e+00   0.000000000000e+00   0.000000000000e+00   0.000000000000e+00 
  0.000000000000e+00   0.000000000000e+00   0.000000000000e+00   0.000000000000e+00   0.000000000000e+00   0.000000000000e+00   0.000000000000e+00   0.000000000000e+00   0.000000000000e+00 
  0.000000000000e+00   0.000000000000e+00   0.000000000000e+00   0.000000000000e+00   0.000000000000e+00   0.000000000000e+00   0.000000000000e+00   0.000000000000e+00   0.000000000000e+00 
  0.000000000000e+00   0.000000000000e+00   0.000000000000e+00   0.000000000000e+00   0.000000000000e+00   0.000000000000e+00   0.000000000000e+00   0.000000000000e+00   0.000000000000e+00 
  0.000000000000e+00   0.000000000000e+00   0.000000000000e+00   0.000000000000e+00   0.000000000000e+00   0.000000000000e+00   0.000000000000e+00   0.000000000000e+00   0.000000000000e+00 
  0.000000000000e+00   0.000000000000e+00   0.000000000000e+00   0.000000000000e+00   0.000000000000e+00   0.000000000000e+00   0.000000000000e+00   2.440041780472e+00   2.234292984009e+00 
  2.271450996399e+00   2.294532299042e+00   2.436072587967e+00   2.585324525833e+00   2.494973182678e+00   2.344688653946e+00   2.305439233780e+00   2.259118556976e+00   2.242108583450e+00 
  2.271084547043e+00   2.265428066254e+00   2.297940969467e+00   2.355397939682e+00   2.341129064560e+00   2.467732429504e+00   2.237820863724e+00   0.000000000000e+00   0.000000000000e+00 
  2.214435338974e+00   2.066080808640e+00   2.087201118469e+00   2.113033771515e+00   2.223836660385e+00   2.390972375870e+00   2.274309158325e+00   2.175913810730e+00   2.117432117462e+00 
  2.083964109421e+00   2.074248790741e+00   2.088769674301e+00   2.138034582138e+00   2.190927505493e+00   2.169547557831e+00   2.185834884644e+00   2.218689441681e+00   2.173138141632e+00 
  0.000000000000e+00   0.000000000000e+00   2.260885953903e+00   2.122176647186e+00   2.093875646591e+00   2.106859683990e+00   2.126864433289e+00   2.216901302338e+00   2.078540802002e+00 
  2.191239595413e+00   2.212456941605e+00   2.104321956635e+00   2.113548517227e+00   2.190722703934e+00   2.237386941910e+00   2.262481689453e+00   2.346847772598e+00   2.315235853195e+00 
  2.240334749222e+00   2.319275856018e+00   0.000000000000e+00   0.000000000000e+00   2.114115476608e+00   2.092170476913e+00   2.125396251678e+00   2.149038314819e+00   2.175608634949e+00 
  2.276988744736e+00   2.005137681961e+00   2.034824609756e+00   2.065699338913e+00   2.021554470062e+00   2.021203994751e+00   2.054565191269e+00   2.085158586502e+00   2.113428831100e+00 
  2.273404359818e+00   2.333550691605e+00   2.275694370270e+00   2.437002420425e+00   0.000000000000e+00   0.000000000000e+00   1.979058384895e+00   2.016209840775e+00   2.149858236313e+00 
  2.094543695450e+00   2.129522562027e+00   2.120395660400e+00   2.026602983475e+00   2.104209661484e+00   1.993978977203e+00   2.059864521027e+00   2.134374141693e+00   2.040898799896e+00 
  2.311351537704e+00   2.294726610184e+00   2.275517225266e+00   2.014042377472e+00   2.081599950790e+00   1.940801382065e+00   0.000000000000e+00   0.000000000000e+00   2.133667469025e+00 
  2.035832166672e+00   2.092341899872e+00   2.093538045883e+00   2.136857509613e+00   1.983803153038e+00   2.031509876251e+00   2.018732786179e+00   2.016441583633e+00   1.973223090172e+00 
  2.013357162476e+00   2.117199659348e+00   2.285458564758e+00   2.222042083740e+00   2.164228916168e+00   2.150354385376e+00   2.088782548904e+00   2.145603418350e+00   0.000000000000e+00 
  0.000000000000e+00   2.141625881195e+00   2.033718824387e+00   2.002008676529e+00   2.023792266846e+00   1.930115461349e+00   1.946873903275e+00   1.945816159248e+00   1.984982371330e+00 
  1.999319911003e+00   2.035672664642e+00   2.052290916443e+00   2.014764547348e+00   1.983863830566e+00   2.021273136139e+00   2.012754440308e+00   2.023475170135e+00   2.020360231400e+00 
  2.214800596237e+00   0.000000000000e+00   0.000000000000e+00   2.129811286926e+00   1.950154066086e+00   2.136298179626e+00   2.080110788345e+00   1.992769122124e+00   1.938668489456e+00 
  1.972428083420e+00   2.023163318634e+00   2.058463335037e+00   2.017255544662e+00   1.996266245842e+00   1.823729157448e+00   1.892754912376e+00   1.948658823967e+00   1.971489548683e+00 
  2.053115606308e+00   2.132360935211e+00   2.158696889877e+00   0.000000000000e+00   0.000000000000e+00   2.024556398392e+00   1.953721165657e+00   2.002650260925e+00   1.886911511421e+00 
  1.972628235817e+00   1.972720503807e+00   1.862523436546e+00   1.930624365807e+00   1.928753018379e+00   1.953703522682e+00   1.983303904533e+00   1.900777339935e+00   2.011397600174e+00 
  2.031773090363e+00   2.000511646271e+00   1.961586356163e+00   1.985585331917e+00   1.960382938385e+00   0.000000000000e+00   0.000000000000e+00   1.924470782280e+00   1.805063009262e+00 
  1.904161691666e+00   1.880814909935e+00   1.923658847809e+00   1.924247860909e+00   1.924198031425e+00   1.960627675056e+00   1.897753953934e+00   2.024899005890e+00   2.031058788300e+00 
  2.015437602997e+00   2.026142358780e+00   2.007615804672e+00   2.113936901093e+00   2.103771924973e+00   2.097693443298e+00   2.124650001526e+00   0.000000000000e+00   0.000000000000e+00 
  1.831075787544e+00   1.820534944534e+00   1.834768056870e+00   1.710431575775e+00   1.781130552292e+00   1.736804485321e+00   1.757514595985e+00   1.854639649391e+00   1.941273689270e+00 
  1.980372309685e+00   1.987225890160e+00   1.933203935623e+00   1.946226477623e+00   2.081248760223e+00   2.137464523315e+00   2.132958412170e+00   2.145948171616e+00   2.038906574249e+00 
  0.000000000000e+00   0.000000000000e+00   1.883649349213e+00   1.744838237762e+00   1.810480237007e+00   1.759743809700e+00   1.810734033585e+00   1.771395564079e+00   1.777132272720e+00 
  1.836111545563e+00   1.998173236847e+00   1.997188925743e+00   2.053682565689e+00   1.999868392944e+00   2.022270441055e+00   2.052301883698e+00   2.123342275620e+00   2.181270837784e+00 
  2.203229188919e+00   2.090930938721e+00   0.000000000000e+00   0.000000000000e+00   1.868242263794e+00   1.808762669563e+00   1.714914917946e+00   1.688643693924e+00   1.732758760452e+00 
  1.734189033508e+00   1.802644491196e+00   1.885468840599e+00   1.965262770653e+00   2.004243135452e+00   2.005270004272e+00   2.081132173538e+00   2.052990913391e+00   2.040726661682e+00 
  2.146585226059e+00   2.233385324478e+00   2.205210685730e+00   2.101351976395e+00   0.000000000000e+00   0.000000000000e+00   1.928515195847e+00   1.852320432663e+00   1.802012443542e+00 
  1.747237205505e+00   1.728012204170e+00   1.738628506660e+00   1.735362887383e+00   1.798125982285e+00   1.896530866623e+00   1.969757795334e+00   2.059514999390e+00   2.063441514969e+00 
  2.099228858948e+00   2.135092496872e+00   2.217102766037e+00   2.236170530319e+00   2.298634529114e+00   2.307524919510e+00   0.000000000000e+00   0.000000000000e+00   1.933184266090e+00 
  1.854200363159e+00   1.846355080605e+00   1.818144917488e+00   1.820748090744e+00   1.810885667801e+00   1.810033679008e+00   1.854369878769e+00   1.928044080734e+00   2.099756479263e+00 
  2.203121185303e+00   2.279019117355e+00   2.288742780685e+00   2.363144397736e+00   2.371803998947e+00   2.362571954727e+00   2.471820354462e+00   2.293345212936e+00   0.000000000000e+00 
  0.000000000000e+00   1.960215210915e+00   1.797995805740e+00   1.817522764206e+00   1.839558959007e+00   1.845971941948e+00   1.850176453590e+00   1.832016110420e+00   1.878730297089e+00 
  2.060103416443e+00   2.245282888412e+00   2.332091331482e+00   2.300224065781e+00   2.325252294540e+00   2.388410329819e+00   2.428537368774e+00   2.403707027435e+00   2.528974533081e+00 
  2.352288007736e+00   0.000000000000e+00   0.000000000000e+00   1.821149945259e+00   1.652735114098e+00   1.674531698227e+00   1.654594182968e+00   1.673299551010e+00   1.652045845985e+00 
  1.639722585678e+00   1.673521518707e+00   1.759922146797e+00   1.878824353218e+00   1.875743627548e+00   1.840694069862e+00   1.918355226517e+00   1.942584395409e+00   2.070258617401e+00 
  2.193451404572e+00   2.426271677017e+00   2.152256727219e+00   0.000000000000e+00   0.000000000000e+00   1.919184803963e+00   2.244946479797e+00   1.849795222282e+00   1.900432348251e+00 
  2.077830553055e+00   1.850549221039e+00   1.778904080391e+00   1.885711312294e+00   1.991968870163e+00   2.021023750305e+00   1.934246420860e+00   2.063972949982e+00   2.157020092010e+00 
  2.214257001877e+00   2.415014028549e+00   2.251783132553e+00   2.574976921082e+00   2.331444501877e+00   0.000000000000e+00   0.000000000000e+00   0.000000000000e+00   0.000000000000e+00 
  0.000000000000e+00   0.000000000000e+00   0.000000000000e+00   0.000000000000e+00   0.000000000000e+00   0.000000000000e+00   0.000000000000e+00   0.000000000000e+00   0.000000000000e+00 
  0.000000000000e+00   0.000000000000e+00   0.000000000000e+00   0.000000000000e+00   0.000000000000e+00   0.000000000000e+00   0.000000000000e+00   0.000000000000e+00   0.000000000000e+00 
  0.000000000000e+00   0.000000000000e+00   0.000000000000e+00   0.000000000000e+00   0.000000000000e+00   0.000000000000e+00   0.000000000000e+00   0.000000000000e+00   0.000000000000e+00 
  0.000000000000e+00   0.000000000000e+00   0.000000000000e+00   0.000000000000e+00   0.000000000000e+00   0.000000000000e+00   0.000000000000e+00   0.000000000000e+00   0.000000000000e+00 
  0.000000000000e+00   0.000000000000e+00   1.412213563919e+00   1.338309049606e+00   1.347874999046e+00   1.375118851662e+00   1.403129100800e+00   1.531256675720e+00   1.488289356232e+00 
  1.506011605263e+00   1.449874281883e+00   1.489511132240e+00   1.430421352386e+00   1.352677345276e+00   1.370141506195e+00   1.386111378670e+00   1.394338130951e+00   1.382997393608e+00 
  1.409724116325e+00   1.359075307846e+00   0.000000000000e+00   0.000000000000e+00   1.401329994202e+00   1.316148757935e+00   1.301884055138e+00   1.293496489525e+00   1.327954411507e+00 
  1.234714150429e+00   1.118629217148e+00   1.337170481682e+00   1.377897262573e+00   1.285673618317e+00   1.353979229927e+00   1.356570363045e+00   1.409147024155e+00   1.437197685242e+00 
  1.394938111305e+00   1.404984235764e+00   1.348567247391e+00   1.446774482727e+00   0.000000000000e+00   0.000000000000e+00   1.277606606483e+00   1.259535670280e+00   1.256744861603e+00 
  1.224989056587e+00   1.384137988091e+00   1.129174470901e+00   1.300677537918e+00   1.156216740608e+00   1.042732000351e+00   1.201679944992e+00   1.235625982285e+00   1.151680350304e+00 
  1.178371906281e+00   1.259502530098e+00   1.297971010208e+00   1.369292974472e+00   1.298021554947e+00   1.475265502930e+00   0.000000000000e+00   0.000000000000e+00   1.340472221375e+00 
  1.183079481125e+00   1.195894122124e+00   1.080338954926e+00   1.034922242165e+00   9.861589074135e-01   1.162031054497e+00   1.134919166565e+00   1.121858358383e+00   1.178111076355e+00 
  1.189509630203e+00   1.278679013252e+00   1.185473203659e+00   1.248344898224e+00   1.087414383888e+00   9.061946868896e-01   1.026479482651e+00   9.527264833450e-01   0.000000000000e+00 
  0.000000000000e+00   1.770165681839e+00   1.389176964760e+00   1.119833230972e+00   1.168944478035e+00   1.000290989876e+00   9.133469462395e-01   1.056433796883e+00   9.944400787354e-01 
  1.125764727592e+00   1.112366795540e+00   1.012245535851e+00   1.015248179436e+00   8.703893423080e-01   8.441014885902e-01   8.497617840767e-01   1.090808629990e+00   1.114643335342e+00 
  1.211891889572e+00   0.000000000000e+00   0.000000000000e+00   1.240060329437e+00   1.134961485863e+00   1.138872265816e+00   1.020777106285e+00   9.559043645859e-01   8.364177346230e-01 
  1.022740960121e+00   1.036936998367e+00   1.037638425827e+00   9.709264636040e-01   8.889896273613e-01   7.962185144424e-01   6.990354657173e-01   6.998230218887e-01   6.781322956085e-01 
  6.237598657608e-01   7.778769731522e-01   5.962162613869e-01   0.000000000000e+00   0.000000000000e+00   9.617015719414e-01   9.470917582512e-01   1.051053166389e+00   9.226177334785e-01 
  9.044971466064e-01   6.072753071785e-01   7.080058455467e-01   7.616119384766e-01   7.971806526184e-01   7.005946040154e-01   6.222041845322e-01   6.139597296715e-01   6.596230268478e-01 
  6.283618211746e-01   5.908493995667e-01   5.100925564766e-01   5.746831893921e-01   5.305756926537e-01   0.000000000000e+00   0.000000000000e+00   8.117092847824e-01   8.449674248695e-01 
  6.438268423080e-01   6.109075546265e-01   5.369760990143e-01   5.575901865959e-01   6.060507297516e-01   5.849857330322e-01   5.965765714645e-01   5.768684148788e-01   5.766928195953e-01 
  6.222677230835e-01   6.244280934334e-01   5.539361238480e-01   5.540406703949e-01   5.095613002777e-01   3.870866596699e-01   5.127749443054e-01   0.000000000000e+00   0.000000000000e+00 
  4.718163609505e-01   5.769278407097e-01   5.404140353203e-01   5.695119500160e-01   4.138145148754e-01   3.937098383904e-01   4.946786761284e-01   4.914205968380e-01   5.144458413124e-01 
  4.929237663746e-01   4.041658639908e-01   4.654271900654e-01   3.706007301807e-01   4.173729717731e-01   4.760068655014e-01   4.995094835758e-01   4.773763716221e-01   6.245520710945e-01 
  0.000000000000e+00   0.000000000000e+00   2.525902390480e-01   5.004857778549e-01   4.479251503944e-01   4.760067760944e-01   3.501088619232e-01   3.449829220772e-01   3.681992292404e-01 
  3.595814108849e-01   4.730111360550e-01   3.609436154366e-01   3.731327056885e-01   4.096688628197e-01   4.261967539787e-01   4.473530650139e-01   4.053912460804e-01   4.213641583920e-01 
  4.498077630997e-01   4.090628325939e-01   0.000000000000e+00   0.000000000000e+00   9.868695586920e-02   4.874644875526e-01   4.444998502731e-01   4.612224698067e-01   3.722320795059e-01 
  4.515514373779e-01   4.928162097931e-01   4.955754280090e-01   4.254241287708e-01   3.762079179287e-01   3.763986527920e-01   4.999988675117e-01   4.550153017044e-01   3.778726160526e-01 
  3.365216255188e-01   4.307587444782e-01   3.866603672504e-01   4.766104519367e-01   0.000000000000e+00   0.000000000000e+00   1.100798547268e-01   4.559894800186e-01   3.631793856621e-01 
  3.342851400375e-01   2.588213980198e-01   2.900079488754e-01   3.170740902424e-01   3.685696125031e-01   2.832403779030e-01   3.335583806038e-01   3.250709474087e-01   4.355727732182e-01 
  4.692136347294e-01   4.541056752205e-01   4.372624158859e-01   4.049281179905e-01   4.095433056355e-01   4.293581247330e-01   0.000000000000e+00   0.000000000000e+00   1.254902482033e-01 
  3.353169560432e-01   3.747264146805e-01   3.036407828331e-01   2.966403961182e-01   3.534021079540e-01   3.603603839874e-01   3.474590778351e-01   3.443326354027e-01   4.390233457088e-01 
  4.769351184368e-01   4.161719679832e-01   4.330341219902e-01   4.552806019783e-01   3.458706140518e-01   3.198227882385e-01   4.343374669552e-01   4.712198674679e-01   0.000000000000e+00 
  0.000000000000e+00   8.683986216784e-02   2.687378525734e-01   2.155916541815e-01   1.921307295561e-01   1.904440671206e-01   1.996778845787e-01   2.704944014549e-01   3.330337107182e-01 
  3.304100036621e-01   3.583243191242e-01   3.988900780678e-01   3.202870190144e-01   3.062151074409e-01   2.764836549759e-01   2.668564617634e-01   3.514350056648e-01   3.680971860886e-01 
  3.595001101494e-01   0.000000000000e+00   0.000000000000e+00   9.812743961811e-02   2.051642239094e-01   1.722259372473e-01   1.204978078604e-01   1.553434878588e-01   1.495541483164e-01 
  1.994421631098e-01   2.472718358040e-01   3.120005130768e-01   2.957666218281e-01   2.080564647913e-01   1.937585026026e-01   2.084330916405e-01   2.016684561968e-01   2.166989892721e-01 
  3.189460635185e-01   3.239523470402e-01   4.069531559944e-01   0.000000000000e+00   0.000000000000e+00   2.119631618261e-01   2.545418739319e-01   2.846521139145e-01   2.305392771959e-01 
  2.376336455345e-01   2.421948462725e-01   2.409395575523e-01   3.592374324799e-01   1.887896358967e-01   1.495005488396e-01   1.360640227795e-01   1.248307451606e-01   1.030735373497e-01 
  1.379102766514e-01   1.663842797279e-01   3.021568357944e-01   2.459014654160e-01   3.251393139362e-01   0.000000000000e+00   0.000000000000e+00   3.445318937302e-01   4.260440468788e-01 
  3.774347305298e-01   3.419061899185e-01   3.289852738380e-01   3.634277284145e-01   4.568530917168e-01   3.855389356613e-01   3.906113803387e-01   3.875454962254e-01   4.797927439213e-01 
  4.668603539467e-01   3.725573718548e-01   3.815968036652e-01   4.632755517960e-01   4.623816609383e-01   5.353274345398e-01   5.045189857483e-01   0.000000000000e+00   0.000000000000e+00 
  1.293918728828e+00   1.893289566040e+00   9.277323484421e-01   1.011824011803e+00   8.804427981377e-01   1.188062906265e+00   7.204068303108e-01   7.387390732765e-01   7.114958167076e-01 
  6.335902214050e-01   9.720660448074e-01   7.906278371811e-01   9.563826322556e-01   1.789311766624e+00   1.126654982567e+00   2.049606800079e+00   1.001341938972e+00   5.651803016663e-01 
  0.000000000000e+00   0.000000000000e+00   0.000000000000e+00   0.000000000000e+00   0.000000000000e+00   0.000000000000e+00   0.000000000000e+00   0.000000000000e+00   0.000000000000e+00 
  0.000000000000e+00   0.000000000000e+00   0.000000000000e+00   0.000000000000e+00   0.000000000000e+00   0.000000000000e+00   0.000000000000e+00   0.000000000000e+00   0.000000000000e+00 
  0.000000000000e+00   0.000000000000e+00   0.000000000000e+00   0.000000000000e+00   0.000000000000e+00   0.000000000000e+00   0.000000000000e+00   0.000000000000e+00   0.000000000000e+00 
  0.000000000000e+00   0.000000000000e+00   0.000000000000e+00   0.000000000000e+00   0.000000000000e+00   0.000000000000e+00   0.000000000000e+00   0.000000000000e+00   0.000000000000e+00 
  0.000000000000e+00   0.000000000000e+00   0.000000000000e+00   0.000000000000e+00   0.000000000000e+00   0.000000000000e+00   8.088127970695e-01   7.584249973297e-01   7.500412464142e-01 
  7.619799971581e-01   7.862152457237e-01   8.075351715088e-01   8.598906397820e-01   7.925730347633e-01   8.596560359001e-01   7.337359189987e-01   7.513595223427e-01   7.733304500580e-01 
  7.957319021225e-01   7.915698289871e-01   8.052871227264e-01   8.014672994614e-01   8.061825037003e-01   8.606891632080e-01   0.000000000000e+00   0.000000000000e+00   6.646341681480e-01 
  6.461458802223e-01   6.385208964348e-01   6.030762195587e-01   6.550861001015e-01   8.275170326233e-01   6.682944297791e-01   6.758878827095e-01   6.197510361671e-01   8.096597790718e-01 
  6.757113933563e-01   6.865809559822e-01   6.563307642937e-01   6.861125826836e-01   6.029276251793e-01   6.310335993767e-01   6.461434364319e-01   7.722756266594e-01   0.000000000000e+00 
  0.000000000000e+00   6.587840914726e-01   5.736891627312e-01   6.071069240570e-01   5.765402913094e-01   5.151990652084e-01   5.853955149651e-01   6.845389008522e-01   5.616319775581e-01 
  6.451481580734e-01   5.793139338493e-01   6.180299520493e-01   6.417491436005e-01   6.282939314842e-01   5.327858924866e-01   7.169879078865e-01   6.090431809425e-01   6.030706763268e-01 
  6.651340723038e-01   0.000000000000e+00   0.000000000000e+00   9.954360127449e-01   8.469488024712e-01   5.496982336044e-01   5.342954993248e-01   4.630860388279e-01   5.300943255424e-01 
  4.367342293262e-01   5.313206315041e-01   4.587166607380e-01   4.502536356449e-01   4.855754971504e-01   4.703764617443e-01   4.939829707146e-01   4.641044437885e-01   3.869897425175e-01 
  4.176275730133e-01   5.321170687675e-01   5.852357745171e-01   0.000000000000e+00   0.000000000000e+00   3.196937143803e-01   3.419058620930e-01   4.355212748051e-01   3.651556074619e-01 
  3.576486408710e-01   8.854789137840e-01   3.800710737705e-01   3.885381221771e-01   3.518574833870e-01   3.996099233627e-01   4.270099699497e-01   3.878223896027e-01   3.521207869053e-01 
  3.448042571545e-01   4.459590911865e-01   1.750561147928e-01   2.332567572594e-01   2.711769938469e-01   0.000000000000e+00   0.000000000000e+00   4.007896780968e-01   3.142381012440e-01 
  2.757354676723e-01   2.898504734039e-01   2.483437508345e-01   2.576200366020e-01   1.422520428896e-01   1.463350355625e-01   2.040531188250e-01   2.319822162390e-01   2.088104039431e-01 
  2.229885011911e-01   2.649703919888e-01   3.048894405365e-01   2.544493377209e-01   1.441864073277e-01   1.054773032665e-01   4.829501211643e-01   0.000000000000e+00   0.000000000000e+00 