# vtk DataFile Version 2.0
Written using VisIt writer
ASCII
DATASET RECTILINEAR_GRID
DIMENSIONS 20 20 20
X_COORDINATES 20 float
  0.000000000000e+00   1.000000000000e+00   2.000000000000e+00   3.000000000000e+00   4.000000000000e+00   5.000000000000e+00   6.000000000000e+00   7.000000000000e+00   8.000000000000e+00 
  9.000000000000e+00   1.000000000000e+01   1.100000000000e+01   1.200000000000e+01   1.300000000000e+01   1.400000000000e+01   1.500000000000e+01   1.600000000000e+01   1.700000000000e+01 
  1.800000000000e+01   1.900000000000e+01 
Y_COORDINATES 20 float
  0.000000000000e+00   1.000000000000e+00   2.000000000000e+00   3.000000000000e+00   4.000000000000e+00   5.000000000000e+00   6.000000000000e+00   7.000000000000e+00   8.000000000000e+00 
  9.000000000000e+00   1.000000000000e+01   1.100000000000e+01   1.200000000000e+01   1.300000000000e+01   1.400000000000e+01   1.500000000000e+01   1.600000000000e+01   1.700000000000e+01 
  1.800000000000e+01   1.900000000000e+01 
Z_COORDINATES 20 float
  0.000000000000e+00   1.000000000000e+00   2.000000000000e+00   3.000000000000e+00   4.000000000000e+00   5.000000000000e+00   6.000000000000e+00   7.000000000000e+00   8.000000000000e+00 
  9.000000000000e+00   1.000000000000e+01   1.100000000000e+01   1.200000000000e+01   1.300000000000e+01   1.400000000000e+01   1.500000000000e+01   1.600000000000e+01   1.700000000000e+01 
  1.800000000000e+01   1.900000000000e+01 
CELL_DATA 6859
POINT_DATA 8000
SCALARS pressure float
LOOKUP_TABLE default
  0.000000000000e+00   0.000000000000e+00   0.000000000000e+00   0.000000000000e+00   0.000000000000e+00   0.000000000000e+00   0.000000000000e+00   0.000000000000e+00   0.000000000000e+00 
  0.000000000000e+00   0.000000000000e+00   0.000000000000e+00   0.000000000000e+00   0.000000000000e+00   0.000000000000e+00   0.000000000000e+00   0.000000000000e+00   0.000000000000e+00 
  0.000000000000e+00   0.000000000000e+00   0.000000000000e+00   0.000000000000e+00   0.000000000000e+00   0.000000000000e+00   0.000000000000e+00   0.000000000000e+00   0.000000000000e+00 
  0.000000000000e+00   0.000000000000e+00   0.000000000000e+00   0.000000000000e+00   0.000000000000e+00   0.000000000000e+00   0.000000000000e+00   0.000000000000e+00   0.000000000000e+00 
  0.000000000000e+00   0.000000000000e+00   0.000000000000e+00   0.000000000000e+00   0.000000000000e+00   0.000000000000e+00   0.000000000000e+00   0.000000000000e+00   0.000000000000e+00 
  0.000000000000e+00   0.000000000000e+00   0.000000000000e+00   0.000000000000e+00   0.000000000000e+00   0.000000000000e+00   0.000000000000e+00   0.000000000000e+00   0.000000000000e+00 
  0.000000000000e+00   0.000000000000e+00   0.000000000000e+00   0.000000000000e+00   0.000000000000e+00   0.000000000000e+00   0.000000000000e+00   0.000000000000e+00   0.000000000000e+00 
  0.000000000000e+00   0.000000000000e+00   0.000000000000e+00   0.000000000000e+00   0.000000000000e+00   0.000000000000e+00   0.000000000000e+00   0.000000000000e+00   0.000000000000e+00 
  0.000000000000e+00   0.000000000000e+00   0.000000000000e+00   0.000000000000e+00   0.000000000000e+00   0.000000000000e+00   0.000000000000e+00   0.000000000000e+00   0.000000000000e+00 
  0.000000000000e+00   0.000000000000e+00   0.000000000000e+00   0.000000000000e+00   0.000000000000e+00   0.000000000000e+00   0.000000000000e+00   0.000000000000e+00   0.000000000000e+00 
  0.000000000000e+00   0.000000000000e+00   0.000000000000e+00   0.000000000000e+00   0.000000000000e+00   0.000000000000e+00   0.000000000000e+00   0.000000000000e+00   0.000000000000e+00 
  0.000000000000e+00   0.000000000000e+00   0.000000000000e+00   0.000000000000e+00   0.000000000000e+00   0.000000000000e+00   0.000000000000e+00   0.000000000000e+00   0.000000000000e+00 
  0.000000000000e+00   0.000000000000e+00   0.000000000000e+00   0.000000000000e+00   0.000000000000e+00   0.000000000000e+00   0.000000000000e+00   0.000000000000e+00   0.000000000000e+00 
  0.000000000000e+00   0.000000000000e+00   0.000000000000e+00   0.000000000000e+00   0.000000000000e+00   0.000000000000e+00   0.000000000000e+00   0.000000000000e+00   0.000000000000e+00 
  0.000000000000e+00   0.000000000000e+00   0.000000000000e+00   0.000000000000e+00   0.000000000000e+00   0.000000000000e+00   0.000000000000e+00   0.000000000000e+00   0.000000000000e+00 
  0.000000000000e+00   0.000000000000e+00   0.000000000000e+00   0.000000000000e+00   0.000000000000e+00   0.000000000000e+00   0.000000000000e+00   0.000000000000e+00   0.000000000000e+00 
  0.000000000000e+00   0.000000000000e+00   0.000000000000e+00   0.000000000000e+00   0.000000000000e+00   0.000000000000e+00   0.000000000000e+00   0.000000000000e+00   0.000000000000e+00 
  0.000000000000e+00   0.000000000000e+00   0.000000000000e+00   0.000000000000e+00   0.000000000000e+00   0.000000000000e+00   0.000000000000e+00   0.000000000000e+00   0.000000000000e+00 
  0.000000000000e+00   0.000000000000e+00   0.000000000000e+00   0.000000000000e+00   0.000000000000e+00   0.000000000000e+00   0.000000000000e+00   0.000000000000e+00   0.000000000000e+00 
  0.000000000000e+00   0.000000000000e+00   0.000000000000e+00   0.000000000000e+00   0.000000000000e+00   0.000000000000e+00   0.000000000000e+00   0.000000000000e+00   0.000000000000e+00 
  0.000000000000e+00   0.000000000000e+00   0.000000000000e+00   0.000000000000e+00   0.000000000000e+00   0.000000000000e+00   0.000000000000e+00   0.000000000000e+00   0.000000000000e+00 
  0.000000000000e+00   0.000000000000e+00   0.000000000000e+00   0.000000000000e+00   0.000000000000e+00   0.000000000000e+00   0.000000000000e+00   0.000000000000e+00   0.000000000000e+00 
  0.000000000000e+00   0.000000000000e+00   0.000000000000e+00   0.000000000000e+00   0.000000000000e+00   0.000000000000e+00   0.000000000000e+00   0.000000000000e+00   0.000000000000e+00 
  0.000000000000e+00   0.000000000000e+00   0.000000000000e+00   0.000000000000e+00   0.000000000000e+00   0.000000000000e+00   0.000000000000e+00   0.000000000000e+00   0.000000000000e+00 
  0.000000000000e+00   0.000000000000e+00   0.000000000000e+00   0.000000000000e+00   0.000000000000e+00   0.000000000000e+00   0.000000000000e+00   0.000000000000e+00   0.000000000000e+00 
  0.000000000000e+00   0.000000000000e+00   0.000000000000e+00   0.000000000000e+00   0.000000000000e+00   0.000000000000e+00   0.000000000000e+00   0.000000000000e+00   0.000000000000e+00 
  0.000000000000e+00   0.000000000000e+00   0.000000000000e+00   0.000000000000e+00   0.000000000000e+00   0.000000000000e+00   0.000000000000e+00   0.000000000000e+00   0.000000000000e+00 
  0.000000000000e+00   0.000000000000e+00   0.000000000000e+00   0.000000000000e+00   0.000000000000e+00   0.000000000000e+00   0.000000000000e+00   0.000000000000e+00   0.000000000000e+00 
  0.000000000000e+00   0.000000000000e+00   0.000000000000e+00   0.000000000000e+00   0.000000000000e+00   0.000000000000e+00   0.000000000000e+00   0.000000000000e+00   0.000000000000e+00 
  0.000000000000e+00   0.000000000000e+00   0.000000000000e+00   0.000000000000e+00   0.000000000000e+00   0.000000000000e+00   0.000000000000e+00   0.000000000000e+00   0.000000000000e+00 
  0.000000000000e+00   0.000000000000e+00   0.000000000000e+00   0.000000000000e+00   0.000000000000e+00   0.000000000000e+00   0.000000000000e+00   0.000000000000e+00   0.000000000000e+00 
  0.000000000000e+00   0.000000000000e+00   0.000000000000e+00   0.000000000000e+00   0.000000000000e+00   0.000000000000e+00   0.000000000000e+00   0.000000000000e+00   0.000000000000e+00 
  0.000000000000e+00   0.000000000000e+00   0.000000000000e+00   0.000000000000e+00   0.000000000000e+00   0.000000000000e+00   0.000000000000e+00   0.000000000000e+00   0.000000000000e+00 
  0.000000000000e+00   0.000000000000e+00   0.000000000000e+00   0.000000000000e+00   0.000000000000e+00   0.000000000000e+00   0.000000000000e+00   0.000000000000e+00   0.000000000000e+00 
  0.000000000000e+00   0.000000000000e+00   0.000000000000e+00   0.000000000000e+00   0.000000000000e+00   0.000000000000e+00   0.000000000000e+00   0.000000000000e+00   0.000000000000e+00 
  0.000000000000e+00   0.000000000000e+00   0.000000000000e+00   0.000000000000e+00   0.000000000000e+00   0.000000000000e+00   0.000000000000e+00   0.000000000000e+00   0.000000000000e+00 
  0.000000000000e+00   0.000000000000e+00   0.000000000000e+00   0.000000000000e+00   0.000000000000e+00   0.000000000000e+00   0.000000000000e+00   0.000000000000e+00   0.000000000000e+00 
  0.000000000000e+00   0.000000000000e+00   0.000000000000e+00   0.000000000000e+00   0.000000000000e+00   0.000000000000e+00   0.000000000000e+00   0.000000000000e+00   0.000000000000e+00 
  0.000000000000e+00   0.000000000000e+00   0.000000000000e+00   0.000000000000e+00   0.000000000000e+00   0.000000000000e+00   0.000000000000e+00   0.000000000000e+00   0.000000000000e+00 
  0.000000000000e+00   0.000000000000e+00   0.000000000000e+00   0.000000000000e+00   0.000000000000e+00   0.000000000000e+00   0.000000000000e+00   0.000000000000e+00   0.000000000000e+00 
  0.000000000000e+00   0.000000000000e+00   0.000000000000e+00   0.000000000000e+00   0.000000000000e+00   0.000000000000e+00   0.000000000000e+00   0.000000000000e+00   0.000000000000e+00 
  0.000000000000e+00   0.000000000000e+00   0.000000000000e+00   0.000000000000e+00   0.000000000000e+00   0.000000000000e+00   0.000000000000e+00   0.000000000000e+00   0.000000000000e+00 
  0.000000000000e+00   0.000000000000e+00   0.000000000000e+00   0.000000000000e+00   0.000000000000e+00   0.000000000000e+00   0.000000000000e+00   0.000000000000e+00   0.000000000000e+00 
  0.000000000000e+00   0.000000000000e+00   0.000000000000e+00   0.000000000000e+00   0.000000000000e+00   0.000000000000e+00   0.000000000000e+00   0.000000000000e+00   0.000000000000e+00 
  0.000000000000e+00   0.000000000000e+00   0.000000000000e+00   0.000000000000e+00   0.000000000000e+00   0.000000000000e+00   0.000000000000e+00   0.000000000000e+00   0.000000000000e+00 
  0.000000000000e+00   0.000000000000e+00   0.000000000000e+00   0.000000000000e+00   0.000000000000e+00   0.000000000000e+00   0.000000000000e+00   0.000000000000e+00   0.000000000000e+00 
  0.000000000000e+00   0.000000000000e+00   0.000000000000e+00   0.000000000000e+00   0.000000000000e+00   0.000000000000e+00   0.000000000000e+00   9.049859046936e+00   9.052063941956e+00 
  9.056358337402e+00   9.062526702881e+00   9.070270538330e+00   9.079240798950e+00   9.089065551758e+00   9.099373817444e+00   9.109813690186e+00   9.120066642761e+00   9.129850387573e+00 
  9.138922691345e+00   9.147076606750e+00   9.154138565063e+00   9.159957885742e+00   9.164411544800e+00   9.167488098145e+00   9.168116569519e+00   0.000000000000e+00   0.000000000000e+00 
  9.049128532410e+00   9.051544189453e+00   9.056244850159e+00   9.062980651855e+00   9.071413040161e+00   9.081150054932e+00   9.091778755188e+00   9.102891921997e+00   9.114110946655e+00 
  9.125096321106e+00   9.135551452637e+00   9.145225524902e+00   9.153904914856e+00   9.161413192749e+00   9.167596817017e+00   9.172327041626e+00   9.175588607788e+00   9.176261901855e+00 
  0.000000000000e+00   0.000000000000e+00   9.044570922852e+00   9.047434806824e+00   9.052992820740e+00   9.060925483704e+00   9.070807456970e+00   9.082152366638e+00   9.094460487366e+00 
  9.107254981995e+00   9.120097160339e+00   9.132606506348e+00   9.144460678101e+00   9.155388832092e+00   9.165167808533e+00   9.173611640930e+00   9.180558204651e+00   9.185873985291e+00 
  9.189523696899e+00   9.190302848816e+00   0.000000000000e+00   0.000000000000e+00   9.042442321777e+00   9.046051025391e+00   9.053029060364e+00   9.062933921814e+00   9.075188636780e+00 
  9.089151382446e+00   9.104182243347e+00   9.119684219360e+00   9.135131835938e+00   9.150080680847e+00   9.164167404175e+00   9.177098274231e+00   9.188633918762e+00   9.198576927185e+00 
  9.206749916077e+00   9.213008880615e+00   9.217283248901e+00   9.218245506287e+00   0.000000000000e+00   0.000000000000e+00   9.043369293213e+00   9.048117637634e+00   9.057257652283e+00 
  9.070145606995e+00   9.085959434509e+00   9.103813171387e+00   9.122847557068e+00   9.142296791077e+00   9.161509513855e+00   9.179960250854e+00   9.197236061096e+00   9.213020324707e+00 
  9.227057456970e+00   9.239139556885e+00   9.249066352844e+00   9.256679534912e+00   9.261850357056e+00   9.263088226318e+00   0.000000000000e+00   0.000000000000e+00   9.047736167908e+00 
  9.054198265076e+00   9.066573143005e+00   9.083884239197e+00   9.104911804199e+00   9.128388404846e+00   9.153143882751e+00   9.178167343140e+00   9.202640533447e+00   9.225935935974e+00 
  9.247599601746e+00   9.267295837402e+00   9.284766197205e+00   9.299790382385e+00   9.312140464783e+00   9.321635246277e+00   9.328042984009e+00   9.329684257507e+00   0.000000000000e+00 
  0.000000000000e+00   9.067394256592e+00   9.076416969299e+00   9.093585014343e+00   9.117365837097e+00   9.145896911621e+00   9.177331924438e+00   9.210048675537e+00   9.242719650269e+00 
  9.274318695068e+00   9.304110527039e+00   9.331596374512e+00   9.356453895569e+00   9.378448486328e+00   9.397363662720e+00   9.412938117981e+00   9.424955368042e+00   9.433015823364e+00 
  9.435206413269e+00   0.000000000000e+00   0.000000000000e+00   9.115979194641e+00   9.128878593445e+00   9.153245925903e+00   9.186593055725e+00   9.225996017456e+00   9.268714904785e+00 
  9.312500000000e+00   9.355598449707e+00   9.396718978882e+00   9.435009956360e+00   9.469992637634e+00   9.501426696777e+00   9.529163360596e+00   9.553033828735e+00   9.572745323181e+00 
  9.588038444519e+00   9.598229408264e+00   9.601158142090e+00   0.000000000000e+00   0.000000000000e+00   9.172753334045e+00   9.191381454468e+00   9.226256370544e+00   9.273344993591e+00 
  9.328033447266e+00   9.386312484741e+00   9.445199966431e+00   9.502423286438e+00   9.556327819824e+00   9.605907440186e+00   9.650733947754e+00   9.690744400024e+00   9.725971221924e+00 
  9.756340026855e+00   9.781514167786e+00   9.801168441772e+00   9.814178466797e+00   9.818211555481e+00   0.000000000000e+00   0.000000000000e+00   9.161238670349e+00   9.188743591309e+00 
  9.239829063416e+00   9.307811737061e+00   9.385261535645e+00   9.466369628906e+00   9.547398567200e+00   9.625430107117e+00   9.698267936707e+00   9.764678001404e+00   9.824323654175e+00 
  9.877395629883e+00   9.924171447754e+00   9.964668273926e+00   9.998399734497e+00   1.002485084534e+01   1.004221153259e+01   1.004825401306e+01   0.000000000000e+00   0.000000000000e+00 
  9.477775573730e+00   9.518476486206e+00   9.593512535095e+00   9.691487312317e+00   9.800016403198e+00   9.910648345947e+00   1.001915550232e+01   1.012211704254e+01   1.021707248688e+01 
  1.030304527283e+01   1.038030529022e+01   1.044962024689e+01   1.051156616211e+01   1.056599617004e+01   1.061184501648e+01   1.064801692963e+01   1.067149829865e+01   1.068029117584e+01 
  0.000000000000e+00   0.000000000000e+00   1.002666568756e+01   1.008617019653e+01   1.019507217407e+01   1.033442115784e+01   1.048326969147e+01   1.062942314148e+01   1.076930332184e+01 
  1.089888668060e+01   1.101559066772e+01   1.111940288544e+01   1.121211814880e+01   1.129586315155e+01   1.137189388275e+01   1.143974685669e+01   1.149745559692e+01   1.154331207275e+01 
  1.157262325287e+01   1.158385086060e+01   0.000000000000e+00   0.000000000000e+00   1.056955337524e+01   1.065619754791e+01   1.081382656097e+01   1.101136589050e+01   1.121339988708e+01 
  1.140294551849e+01   1.157987689972e+01   1.173894596100e+01   1.187772178650e+01   1.199805068970e+01   1.210430145264e+01   1.220081233978e+01   1.229008674622e+01   1.237119102478e+01 
  1.244101715088e+01   1.249752712250e+01   1.253324222565e+01   1.254680919647e+01   0.000000000000e+00   0.000000000000e+00   1.133978080750e+01   1.146207809448e+01   1.168395519257e+01 
  1.195716381073e+01   1.222532653809e+01   1.246517467499e+01   1.268350601196e+01   1.287336730957e+01   1.303458595276e+01   1.317301559448e+01   1.329646015167e+01   1.341155338287e+01 
  1.352169895172e+01   1.362357711792e+01   1.371184062958e+01   1.378431415558e+01   1.382997989655e+01   1.384618949890e+01   0.000000000000e+00   0.000000000000e+00   1.248141193390e+01 
  1.264078426361e+01   1.292909717560e+01   1.327774238586e+01   1.360740089417e+01   1.388494586945e+01   1.412126636505e+01   1.431002044678e+01   1.446067714691e+01   1.459007453918e+01 
  1.471189880371e+01   1.483393573761e+01   1.495849514008e+01   1.507528018951e+01   1.517631149292e+01   1.526046085358e+01   1.531250953674e+01   1.532466411591e+01   0.000000000000e+00 
  0.000000000000e+00   1.357760620117e+01   1.377458763123e+01   1.412851810455e+01   1.454599189758e+01   1.493424129486e+01   1.524381732941e+01   1.546882724762e+01   1.561468029022e+01 
  1.571240901947e+01   1.579551124573e+01   1.588505172729e+01   1.598746299744e+01   1.610451698303e+01   1.621487045288e+01   1.631509590149e+01   1.640674209595e+01   1.646472167969e+01 
  1.646543121338e+01   0.000000000000e+00   0.000000000000e+00   1.475686931610e+01   1.497890186310e+01   1.538451385498e+01   1.585143566132e+01   1.627745819092e+01   1.659784507751e+01 
  1.679017066956e+01   1.687420845032e+01   1.690533065796e+01   1.691979598999e+01   1.694948005676e+01   1.698644447327e+01   1.704525756836e+01   1.710678482056e+01   1.719466590881e+01 
  1.730687713623e+01   1.737949752808e+01   1.733863449097e+01   0.000000000000e+00   0.000000000000e+00   1.573748111725e+01   1.598586082458e+01   1.642177581787e+01   1.692572593689e+01 
  1.738140296936e+01   1.771313667297e+01   1.787378311157e+01   1.788460540771e+01   1.781862449646e+01   1.773882484436e+01   1.768856430054e+01   1.766660881042e+01   1.769167327881e+01 
  1.769339370728e+01   1.774990653992e+01   1.786077117920e+01   1.794355392456e+01   1.789802551270e+01   0.000000000000e+00   0.000000000000e+00   0.000000000000e+00   0.000000000000e+00 
  0.000000000000e+00   0.000000000000e+00   0.000000000000e+00   0.000000000000e+00   0.000000000000e+00   0.000000000000e+00   0.000000000000e+00   0.000000000000e+00   0.000000000000e+00 
  0.000000000000e+00   0.000000000000e+00   0.000000000000e+00   0.000000000000e+00   0.000000000000e+00   0.000000000000e+00   0.000000000000e+00   0.000000000000e+00   0.000000000000e+00 
  0.000000000000e+00   0.000000000000e+00   0.000000000000e+00   0.000000000000e+00   0.000000000000e+00   0.000000000000e+00   0.000000000000e+00   0.000000000000e+00   0.000000000000e+00 
  0.000000000000e+00   0.000000000000e+00   0.000000000000e+00   0.000000000000e+00   0.000000000000e+00   0.000000000000e+00   0.000000000000e+00   0.000000000000e+00   0.000000000000e+00 
  0.000000000000e+00   0.000000000000e+00   8.006234169006e+00   8.008354187012e+00   8.012484550476e+00   8.018415451050e+00   8.025861740112e+00   8.034485816956e+00   8.043931007385e+00 
  8.053840637207e+00   8.063878059387e+00   8.073733329773e+00   8.083138465881e+00   8.091858863831e+00   8.099696159363e+00   8.106486320496e+00   8.112082481384e+00   8.116364479065e+00 
  8.119323730469e+00   8.119925498962e+00   0.000000000000e+00   0.000000000000e+00   8.002489089966e+00   8.004810333252e+00   8.009325027466e+00   8.015793800354e+00   8.023892402649e+00 
  8.033242225647e+00   8.043447494507e+00   8.054119110107e+00   8.064891815186e+00   8.075440406799e+00   8.085479736328e+00   8.094768524170e+00   8.103103637695e+00   8.110314369202e+00 
  8.116253852844e+00   8.120798110962e+00   8.123930931091e+00   8.124576568604e+00   0.000000000000e+00   0.000000000000e+00   7.996014118195e+00   7.998764038086e+00   8.004097938538e+00 
  8.011710166931e+00   8.021190643311e+00   8.032073974609e+00   8.043880462646e+00   8.056152343750e+00   8.068470954895e+00   8.080471038818e+00   8.091841697693e+00   8.102325439453e+00 
  8.111707687378e+00   8.119810104370e+00   8.126476287842e+00   8.131579399109e+00   8.135082244873e+00   8.135829925537e+00   0.000000000000e+00   0.000000000000e+00   7.989441394806e+00 
  7.992904663086e+00   7.999597549438e+00   8.009095191956e+00   8.020840644836e+00   8.034218788147e+00   8.048617362976e+00   8.063466072083e+00   8.078261375427e+00   8.092578887939e+00 
  8.106070518494e+00   8.118455886841e+00   8.129505157471e+00   8.139031410217e+00   8.146862983704e+00   8.152863502502e+00   8.156961441040e+00   8.157882690430e+00   0.000000000000e+00 
  0.000000000000e+00   7.980014324188e+00   7.984566211700e+00   7.993323802948e+00   8.005666732788e+00   8.020800590515e+00   8.037878036499e+00   8.056079864502e+00   8.074674606323e+00 
  8.093040466309e+00   8.110673904419e+00   8.127180099487e+00   8.142255783081e+00   8.155659675598e+00   8.167197227478e+00   8.176678657532e+00   8.183954238892e+00   8.188894271851e+00 
  8.190079689026e+00   0.000000000000e+00   0.000000000000e+00   7.967916965485e+00   7.974112033844e+00   7.985966682434e+00   8.002536773682e+00   8.022644996643e+00   8.045077323914e+00 
  8.068718910217e+00   8.092612266541e+00   8.115980148315e+00   8.138218879700e+00   8.158885955811e+00   8.177662849426e+00   8.194308280945e+00   8.208621025085e+00   8.220389366150e+00 
  8.229442596436e+00   8.235553741455e+00   8.237132072449e+00   0.000000000000e+00   0.000000000000e+00   7.970366477966e+00   7.979042530060e+00   7.995539188385e+00   8.018363952637e+00 
  8.045709609985e+00   8.075806617737e+00   8.107117652893e+00   8.138373374939e+00   8.168587684631e+00   8.197045326233e+00   8.223278045654e+00   8.246979713440e+00   8.267935752869e+00 
  8.285956382751e+00   8.300799369812e+00   8.312263488770e+00   8.319954872131e+00   8.322106361389e+00   0.000000000000e+00   0.000000000000e+00   7.978693962097e+00   7.991076469421e+00 
  8.014426231384e+00   8.046320915222e+00   8.083930969238e+00   8.124674797058e+00   8.166485786438e+00   8.207715988159e+00   8.247114181519e+00   8.283826828003e+00   8.317369461060e+00 
  8.347503662109e+00   8.374089241028e+00   8.396973609924e+00   8.415884017944e+00   8.430570602417e+00   8.440375328064e+00   8.443377494812e+00   0.000000000000e+00   0.000000000000e+00 
  8.006769180298e+00   8.024912834167e+00   8.058848381042e+00   8.104504585266e+00   8.157264709473e+00   8.213325500488e+00   8.270028114319e+00   8.325242996216e+00   8.377351760864e+00 
  8.425342559814e+00   8.468791961670e+00   8.507637977600e+00   8.541911125183e+00   8.571542739868e+00   8.596191406250e+00   8.615481376648e+00   8.628278732300e+00   8.632605552673e+00 
  0.000000000000e+00   0.000000000000e+00   8.079462051392e+00   8.106523513794e+00   8.156727790833e+00   8.223082542419e+00   8.297761917114e+00   8.375244140625e+00   8.452588081360e+00 
  8.527088165283e+00   8.596543312073e+00   8.659750938416e+00   8.716487884521e+00   8.767035484314e+00   8.811758995056e+00   8.850738525391e+00   8.883475303650e+00   8.909312248230e+00 
  8.926284790039e+00   8.932694435120e+00   0.000000000000e+00   0.000000000000e+00   8.282295227051e+00   8.323267936707e+00   8.398789405823e+00   8.496562957764e+00   8.602628707886e+00 
  8.709115982056e+00   8.814097404480e+00   8.914069175720e+00   9.005961418152e+00   9.088465690613e+00   9.161936759949e+00   9.227390289307e+00   9.285816192627e+00   9.337431907654e+00 
  9.381313323975e+00   9.416243553162e+00   9.438835144043e+00   9.448260307312e+00   0.000000000000e+00   0.000000000000e+00   8.655398368835e+00   8.717595100403e+00   8.831988334656e+00 
  8.977163314819e+00   9.127023696899e+00   9.270810127258e+00   9.411610603333e+00   9.543843269348e+00   9.662892341614e+00   9.767661094666e+00   9.859965324402e+00   9.942385673523e+00 
  1.001708030701e+01   1.008422374725e+01   1.014182376862e+01   1.018784904480e+01   1.021681404114e+01   1.022976970673e+01   0.000000000000e+00   0.000000000000e+00   9.189498901367e+00 
  9.283881187439e+00   9.458281517029e+00   9.675912857056e+00   9.886108398438e+00   1.007523345947e+01   1.026159286499e+01   1.043297863007e+01   1.058284854889e+01   1.071153736115e+01 
  1.082376194000e+01   1.092482566833e+01   1.101899242401e+01   1.110561656952e+01   1.118032264709e+01   1.124068927765e+01   1.127775382996e+01   1.129400348663e+01   0.000000000000e+00 
  0.000000000000e+00   9.965993881226e+00   1.010535430908e+01   1.036557388306e+01   1.068662738800e+01   1.097347545624e+01   1.120921421051e+01   1.144625759125e+01   1.165551376343e+01 
  1.183082103729e+01   1.197809982300e+01   1.210767936707e+01   1.222941684723e+01   1.235014820099e+01   1.246358585358e+01   1.255957984924e+01   1.263724803925e+01   1.268387985229e+01 
  1.270146083832e+01   0.000000000000e+00   0.000000000000e+00   1.102059173584e+01   1.121584129333e+01   1.158233451843e+01   1.202608394623e+01   1.239939498901e+01   1.267664623260e+01 
  1.294822216034e+01   1.316386890411e+01   1.333133888245e+01   1.347316455841e+01   1.360599517822e+01   1.374195480347e+01   1.389037704468e+01   1.402792072296e+01   1.413973045349e+01 
  1.423247146606e+01   1.429074287415e+01   1.430212593079e+01   0.000000000000e+00   0.000000000000e+00   1.227143573761e+01   1.252657032013e+01   1.299730300903e+01   1.352895736694e+01 
  1.398437500000e+01   1.431911373138e+01   1.456569862366e+01   1.471308231354e+01   1.480705356598e+01   1.490236854553e+01   1.501402854919e+01   1.514595031738e+01   1.531350231171e+01 
  1.545412445068e+01   1.556609821320e+01   1.566497707367e+01   1.573816967010e+01   1.572979354858e+01   0.000000000000e+00   0.000000000000e+00   1.358943176270e+01   1.387508869171e+01 
  1.439209079742e+01   1.496572303772e+01   1.546639633179e+01   1.582261753082e+01   1.600277137756e+01   1.603153800964e+01   1.601958847046e+01   1.603000640869e+01   1.609340095520e+01 
  1.617676734924e+01   1.633267021179e+01   1.642885398865e+01   1.653709220886e+01   1.667670440674e+01   1.678547096252e+01   1.669669914246e+01   0.000000000000e+00   0.000000000000e+00 
  1.452935218811e+01   1.477787303925e+01   1.532735061646e+01   1.593828296661e+01   1.649357032776e+01   1.688534355164e+01   1.700476837158e+01   1.690107536316e+01   1.676380538940e+01 
  1.660114669800e+01   1.658668327332e+01   1.656991767883e+01   1.663614845276e+01   1.655088043213e+01   1.661044692993e+01   1.684289550781e+01   1.701120758057e+01   1.678833961487e+01 
  0.000000000000e+00   0.000000000000e+00   0.000000000000e+00   0.000000000000e+00   0.000000000000e+00   0.000000000000e+00   0.000000000000e+00   0.000000000000e+00   0.000000000000e+00 
  0.000000000000e+00   0.000000000000e+00   0.000000000000e+00   0.000000000000e+00   0.000000000000e+00   0.000000000000e+00   0.000000000000e+00   0.000000000000e+00   0.000000000000e+00 
  0.000000000000e+00   0.000000000000e+00   0.000000000000e+00   0.000000000000e+00   0.000000000000e+00   0.000000000000e+00   0.000000000000e+00   0.000000000000e+00   0.000000000000e+00 
  0.000000000000e+00   0.000000000000e+00   0.000000000000e+00   0.000000000000e+00   0.000000000000e+00   0.000000000000e+00   0.000000000000e+00   0.000000000000e+00   0.000000000000e+00 
  0.000000000000e+00   0.000000000000e+00   0.000000000000e+00   0.000000000000e+00   0.000000000000e+00   0.000000000000e+00   6.933065891266e+00   6.935021400452e+00   6.938831806183e+00 
  6.944304943085e+00   6.951176166534e+00   6.959135055542e+00   6.967852115631e+00   6.976999759674e+00   6.986266613007e+00   6.995368003845e+00   7.004053115845e+00   7.012109756470e+00 
  7.019356250763e+00   7.025639057159e+00   7.030820846558e+00   7.034786224365e+00   7.037526607513e+00   7.038075923920e+00   0.000000000000e+00   0.000000000000e+00   6.933761596680e+00 
  6.935897827148e+00   6.940053939819e+00   6.946009635925e+00   6.953464508057e+00   6.962072372437e+00   6.971468925476e+00   6.981296539307e+00   6.991220951080e+00   7.000941276550e+00 
  7.010195255280e+00   7.018764019012e+00   7.026459693909e+00   7.033123970032e+00   7.038616180420e+00   7.042819976807e+00   7.045717716217e+00   7.046309947968e+00   0.000000000000e+00 
  0.000000000000e+00   6.918707370758e+00   6.921238422394e+00   6.926146984100e+00   6.933147430420e+00   6.941861629486e+00   6.951861858368e+00   6.962709903717e+00   6.973987579346e+00 
  6.985312938690e+00   6.996350288391e+00   7.006815433502e+00   7.016470909119e+00   7.025118827820e+00   7.032593250275e+00   7.038748264313e+00   7.043463230133e+00   7.046701908112e+00 
  7.047394275665e+00   0.000000000000e+00   0.000000000000e+00   6.882431507111e+00   6.885620117188e+00   6.891777992249e+00   6.900506019592e+00   6.911290645599e+00   6.923568725586e+00 
  6.936782836914e+00   6.950414180756e+00   6.964004039764e+00   6.977162361145e+00   6.989570617676e+00   7.000968456268e+00   7.011143207550e+00   7.019920825958e+00   7.027144432068e+00 
  7.032685756683e+00   7.036472797394e+00   7.037333965302e+00   0.000000000000e+00   0.000000000000e+00   6.846087932587e+00   6.850261211395e+00   6.858279705048e+00   6.869571208954e+00 
  6.883406162262e+00   6.899011135101e+00   6.915648460388e+00   6.932654380798e+00   6.949461460114e+00   6.965605735779e+00   6.980723381042e+00   6.994532585144e+00   7.006813526154e+00 
  7.017390251160e+00   7.026090621948e+00   7.032775878906e+00   7.037315368652e+00   7.038427829742e+00   0.000000000000e+00   0.000000000000e+00   6.816448211670e+00   6.822106838226e+00 
  6.832919597626e+00   6.848016738892e+00   6.866311073303e+00   6.886700153351e+00   6.908185958862e+00   6.929908752441e+00   6.951161384583e+00   6.971390724182e+00   6.990188598633e+00 
  7.007260322571e+00   7.022392749786e+00   7.035415172577e+00   7.046135902405e+00   7.054396152496e+00   7.059966564178e+00   7.061466217041e+00   0.000000000000e+00   0.000000000000e+00 