# vtk DataFile Version 2.0
Written using VisIt writer
ASCII
DATASET RECTILINEAR_GRID
DIMENSIONS 20 20 20
X_COORDINATES 20 float
  0.000000000000e+00   1.000000000000e+00   2.000000000000e+00   3.000000000000e+00   4.000000000000e+00   5.000000000000e+00   6.000000000000e+00   7.000000000000e+00   8.000000000000e+00 
  9.000000000000e+00   1.000000000000e+01   1.100000000000e+01   1.200000000000e+01   1.300000000000e+01   1.400000000000e+01   1.500000000000e+01   1.600000000000e+01   1.700000000000e+01 
  1.800000000000e+01   1.900000000000e+01 
Y_COORDINATES 20 float
  0.000000000000e+00   1.000000000000e+00   2.000000000000e+00   3.000000000000e+00   4.000000000000e+00   5.000000000000e+00   6.000000000000e+00   7.000000000000e+00   8.000000000000e+00 
  9.000000000000e+00   1.000000000000e+01   1.100000000000e+01   1.200000000000e+01   1.300000000000e+01   1.400000000000e+01   1.500000000000e+01   1.600000000000e+01   1.700000000000e+01 
  1.800000000000e+01   1.900000000000e+01 
Z_COORDINATES 20 float
  0.000000000000e+00   1.000000000000e+00   2.000000000000e+00   3.000000000000e+00   4.000000000000e+00   5.000000000000e+00   6.000000000000e+00   7.000000000000e+00   8.000000000000e+00 
  9.000000000000e+00   1.000000000000e+01   1.100000000000e+01   1.200000000000e+01   1.300000000000e+01   1.400000000000e+01   1.500000000000e+01   1.600000000000e+01   1.700000000000e+01 
  1.800000000000e+01   1.900000000000e+01 
CELL_DATA 6859
POINT_DATA 8000
SCALARS pressure float
LOOKUP_TABLE default
  0.000000000000e+00   0.000000000000e+00   0.000000000000e+00   0.000000000000e+00   0.000000000000e+00   0.000000000000e+00   0.000000000000e+00   0.000000000000e+00   0.000000000000e+00 
  0.000000000000e+00   0.000000000000e+00   0.000000000000e+00   0.000000000000e+00   0.000000000000e+00   0.000000000000e+00   0.000000000000e+00   0.000000000000e+00   0.000000000000e+00 
  0.000000000000e+00   0.000000000000e+00   0.000000000000e+00   0.000000000000e+00   0.000000000000e+00   0.000000000000e+00   0.000000000000e+00   0.000000000000e+00   0.000000000000e+00 
  0.000000000000e+00   0.000000000000e+00   0.000000000000e+00   0.000000000000e+00   0.000000000000e+00   0.000000000000e+00   0.000000000000e+00   0.000000000000e+00   0.000000000000e+00 
  0.000000000000e+00   0.000000000000e+00   0.000000000000e+00   0.000000000000e+00   0.000000000000e+00   0.000000000000e+00   0.000000000000e+00   0.000000000000e+00   0.000000000000e+00 
  0.000000000000e+00   0.000000000000e+00   0.000000000000e+00   0.000000000000e+00   0.000000000000e+00   0.000000000000e+00   0.000000000000e+00   0.000000000000e+00   0.000000000000e+00 
  0.000000000000e+00   0.000000000000e+00   0.000000000000e+00   0.000000000000e+00   0.000000000000e+00   0.000000000000e+00   0.000000000000e+00   0.000000000000e+00   0.000000000000e+00 
  0.000000000000e+00   0.000000000000e+00   0.000000000000e+00   0.000000000000e+00   0.000000000000e+00   0.000000000000e+00   0.000000000000e+00   0.000000000000e+00   0.000000000000e+00 
  0.000000000000e+00   0.000000000000e+00   0.000000000000e+00   0.000000000000e+00   0.000000000000e+00   0.000000000000e+00   0.000000000000e+00   0.000000000000e+00   0.000000000000e+00 
  0.000000000000e+00   0.000000000000e+00   0.000000000000e+00   0.000000000000e+00   0.000000000000e+00   0.000000000000e+00   0.000000000000e+00   0.000000000000e+00   0.000000000000e+00 
  0.000000000000e+00   0.000000000000e+00   0.000000000000e+00   0.000000000000e+00   0.000000000000e+00   0.000000000000e+00   0.000000000000e+00   0.000000000000e+00   0.000000000000e+00 
  0.000000000000e+00   0.000000000000e+00   0.000000000000e+00   0.000000000000e+00   0.000000000000e+00   0.000000000000e+00   0.000000000000e+00   0.000000000000e+00   0.000000000000e+00 
  0.000000000000e+00   0.000000000000e+00   0.000000000000e+00   0.000000000000e+00   0.000000000000e+00   0.000000000000e+00   0.000000000000e+00   0.000000000000e+00   0.000000000000e+00 
  0.000000000000e+00   0.000000000000e+00   0.000000000000e+00   0.000000000000e+00   0.000000000000e+00   0.000000000000e+00   0.000000000000e+00   0.000000000000e+00   0.000000000000e+00 
  0.000000000000e+00   0.000000000000e+00   0.000000000000e+00   0.000000000000e+00   0.000000000000e+00   0.000000000000e+00   0.000000000000e+00   0.000000000000e+00   0.000000000000e+00 
  0.000000000000e+00   0.000000000000e+00   0.000000000000e+00   0.000000000000e+00   0.000000000000e+00   0.000000000000e+00   0.000000000000e+00   0.000000000000e+00   0.000000000000e+00 
  0.000000000000e+00   0.000000000000e+00   0.000000000000e+00   0.000000000000e+00   0.000000000000e+00   0.000000000000e+00   0.000000000000e+00   0.000000000000e+00   0.000000000000e+00 
  0.000000000000e+00   0.000000000000e+00   0.000000000000e+00   0.000000000000e+00   0.000000000000e+00   0.000000000000e+00   0.000000000000e+00   0.000000000000e+00   0.000000000000e+00 
  0.000000000000e+00   0.000000000000e+00   0.000000000000e+00   0.000000000000e+00   0.000000000000e+00   0.000000000000e+00   0.000000000000e+00   0.000000000000e+00   0.000000000000e+00 
  0.000000000000e+00   0.000000000000e+00   0.000000000000e+00   0.000000000000e+00   0.000000000000e+00   0.000000000000e+00   0.000000000000e+00   0.000000000000e+00   0.000000000000e+00 
  0.000000000000e+00   0.000000000000e+00   0.000000000000e+00   0.000000000000e+00   0.000000000000e+00   0.000000000000e+00   0.000000000000e+00   0.000000000000e+00   0.000000000000e+00 
  0.000000000000e+00   0.000000000000e+00   0.000000000000e+00   0.000000000000e+00   0.000000000000e+00   0.000000000000e+00   0.000000000000e+00   0.000000000000e+00   0.000000000000e+00 
  0.000000000000e+00   0.000000000000e+00   0.000000000000e+00   0.000000000000e+00   0.000000000000e+00   0.000000000000e+00   0.000000000000e+00   0.000000000000e+00   0.000000000000e+00 
  0.000000000000e+00   0.000000000000e+00   0.000000000000e+00   0.000000000000e+00   0.000000000000e+00   0.000000000000e+00   0.000000000000e+00   0.000000000000e+00   0.000000000000e+00 
  0.000000000000e+00   0.000000000000e+00   0.000000000000e+00   0.000000000000e+00   0.000000000000e+00   0.000000000000e+00   0.000000000000e+00   0.000000000000e+00   0.000000000000e+00 
  0.000000000000e+00   0.000000000000e+00   0.000000000000e+00   0.000000000000e+00   0.000000000000e+00   0.000000000000e+00   0.000000000000e+00   0.000000000000e+00   0.000000000000e+00 
  0.000000000000e+00   0.000000000000e+00   0.000000000000e+00   0.000000000000e+00   0.000000000000e+00   0.000000000000e+00   0.000000000000e+00   0.000000000000e+00   0.000000000000e+00 
  0.000000000000e+00   0.000000000000e+00   0.000000000000e+00   0.000000000000e+00   0.000000000000e+00   0.000000000000e+00   0.000000000000e+00   0.000000000000e+00   0.000000000000e+00 
  0.000000000000e+00   0.000000000000e+00   0.000000000000e+00   0.000000000000e+00   0.000000000000e+00   0.000000000000e+00   0.000000000000e+00   0.000000000000e+00   0.000000000000e+00 
  0.000000000000e+00   0.000000000000e+00   0.000000000000e+00   0.000000000000e+00   0.000000000000e+00   0.000000000000e+00   0.000000000000e+00   0.000000000000e+00   0.000000000000e+00 
  0.000000000000e+00   0.000000000000e+00   0.000000000000e+00   0.000000000000e+00   0.000000000000e+00   0.000000000000e+00   0.000000000000e+00   0.000000000000e+00   0.000000000000e+00 
  0.000000000000e+00   0.000000000000e+00   0.000000000000e+00   0.000000000000e+00   0.000000000000e+00   0.000000000000e+00   0.000000000000e+00   0.000000000000e+00   0.000000000000e+00 
  0.000000000000e+00   0.000000000000e+00   0.000000000000e+00   0.000000000000e+00   0.000000000000e+00   0.000000000000e+00   0.000000000000e+00   0.000000000000e+00   0.000000000000e+00 
  0.000000000000e+00   0.000000000000e+00   0.000000000000e+00   0.000000000000e+00   0.000000000000e+00   0.000000000000e+00   0.000000000000e+00   0.000000000000e+00   0.000000000000e+00 
  0.000000000000e+00   0.000000000000e+00   0.000000000000e+00   0.000000000000e+00   0.000000000000e+00   0.000000000000e+00   0.000000000000e+00   0.000000000000e+00   0.000000000000e+00 
  0.000000000000e+00   0.000000000000e+00   0.000000000000e+00   0.000000000000e+00   0.000000000000e+00   0.000000000000e+00   0.000000000000e+00   0.000000000000e+00   0.000000000000e+00 
  0.000000000000e+00   0.000000000000e+00   0.000000000000e+00   0.000000000000e+00   0.000000000000e+00   0.000000000000e+00   0.000000000000e+00   0.000000000000e+00   0.000000000000e+00 
  0.000000000000e+00   0.000000000000e+00   0.000000000000e+00   0.000000000000e+00   0.000000000000e+00   0.000000000000e+00   0.000000000000e+00   0.000000000000e+00   0.000000000000e+00 
  0.000000000000e+00   0.000000000000e+00   0.000000000000e+00   0.000000000000e+00   0.000000000000e+00   0.000000000000e+00   0.000000000000e+00   0.000000000000e+00   0.000000000000e+00 
  0.000000000000e+00   0.000000000000e+00   0.000000000000e+00   0.000000000000e+00   0.000000000000e+00   0.000000000000e+00   0.000000000000e+00   0.000000000000e+00   0.000000000000e+00 
  0.000000000000e+00   0.000000000000e+00   0.000000000000e+00   0.000000000000e+00   0.000000000000e+00   0.000000000000e+00   0.000000000000e+00   0.000000000000e+00   0.000000000000e+00 
  0.000000000000e+00   0.000000000000e+00   0.000000000000e+00   0.000000000000e+00   0.000000000000e+00   0.000000000000e+00   0.000000000000e+00   0.000000000000e+00   0.000000000000e+00 
  0.000000000000e+00   0.000000000000e+00   0.000000000000e+00   0.000000000000e+00   0.000000000000e+00   0.000000000000e+00   0.000000000000e+00   0.000000000000e+00   0.000000000000e+00 
  0.000000000000e+00   0.000000000000e+00   0.000000000000e+00   0.000000000000e+00   0.000000000000e+00   0.000000000000e+00   0.000000000000e+00   0.000000000000e+00   0.000000000000e+00 
  0.000000000000e+00   0.000000000000e+00   0.000000000000e+00   0.000000000000e+00   0.000000000000e+00   0.000000000000e+00   0.000000000000e+00   0.000000000000e+00   0.000000000000e+00 
  0.000000000000e+00   0.000000000000e+00   0.000000000000e+00   0.000000000000e+00   0.000000000000e+00   0.000000000000e+00   0.000000000000e+00   0.000000000000e+00   0.000000000000e+00 
  0.000000000000e+00   0.000000000000e+00   0.000000000000e+00   0.000000000000e+00   0.000000000000e+00   0.000000000000e+00   0.000000000000e+00   7.688265800476e+00   7.688415527344e+00 
  7.688700675964e+00   7.689104080200e+00   7.689596176147e+00   7.690138816833e+00   7.690689563751e+00   7.691204071045e+00   7.691643238068e+00   7.691977977753e+00   7.692194461823e+00 
  7.692291736603e+00   7.692286968231e+00   7.692199707031e+00   7.692093849182e+00   7.691906929016e+00   7.691815853119e+00   7.692001819611e+00   0.000000000000e+00   0.000000000000e+00 
  7.667277812958e+00   7.667434215546e+00   7.667733669281e+00   7.668159008026e+00   7.668680191040e+00   7.669257164001e+00   7.669839859009e+00   7.670378684998e+00   7.670827865601e+00 
  7.671154022217e+00   7.671341896057e+00   7.671393871307e+00   7.671331882477e+00   7.671181201935e+00   7.671015262604e+00   7.670772075653e+00   7.670644283295e+00   7.670825004578e+00 
  0.000000000000e+00   0.000000000000e+00   7.623280525208e+00   7.623449325562e+00   7.623775959015e+00   7.624245643616e+00   7.624827384949e+00   7.625474452972e+00   7.626125335693e+00 
  7.626713752747e+00   7.627180099487e+00   7.627480983734e+00   7.627599239349e+00   7.627544403076e+00   7.627349376678e+00   7.627055168152e+00   7.626755714417e+00   7.626389026642e+00 
  7.626181602478e+00   7.626352310181e+00   0.000000000000e+00   0.000000000000e+00   7.562139034271e+00   7.562321662903e+00   7.562682628632e+00   7.563214778900e+00   7.563889980316e+00 
  7.564651489258e+00   7.565415382385e+00   7.566087245941e+00   7.566577911377e+00   7.566827297211e+00   7.566815376282e+00   7.566563606262e+00   7.566128253937e+00   7.565579891205e+00 
  7.565047740936e+00   7.564474582672e+00   7.564133644104e+00   7.564290046692e+00   0.000000000000e+00   0.000000000000e+00   7.452794075012e+00   7.452965259552e+00   7.453315734863e+00 
  7.453864574432e+00   7.454599857330e+00   7.455457210541e+00   7.456322193146e+00   7.457052707672e+00   7.457515239716e+00   7.457620143890e+00   7.457344055176e+00   7.456733226776e+00 
  7.455887317657e+00   7.454924583435e+00   7.454028129578e+00   7.453143596649e+00   7.452613353729e+00   7.452747821808e+00   0.000000000000e+00   0.000000000000e+00   7.285611629486e+00 
  7.285811424255e+00   7.286243438721e+00   7.286957740784e+00   7.287947654724e+00   7.289113044739e+00   7.290267944336e+00   7.291181087494e+00   7.291641712189e+00   7.291519641876e+00 
  7.290800571442e+00   7.289589405060e+00   7.288072586060e+00   7.286454677582e+00   7.284997463226e+00   7.283646106720e+00   7.282835483551e+00   7.282885074615e+00   0.000000000000e+00 
  0.000000000000e+00   7.212340831757e+00   7.212649345398e+00   7.213367462158e+00   7.214592933655e+00   7.216320037842e+00   7.218379020691e+00   7.220438480377e+00   7.222086906433e+00 
  7.222949028015e+00   7.222801208496e+00   7.221632957458e+00   7.219645023346e+00   7.217181205750e+00   7.214609146118e+00   7.212333202362e+00   7.210313320160e+00   7.209115982056e+00 
  7.209009647369e+00   0.000000000000e+00   0.000000000000e+00   7.187330722809e+00   7.187572479248e+00   7.188312053680e+00   7.189860820770e+00   7.192348480225e+00   7.195573806763e+00 
  7.198997974396e+00   7.201888561249e+00   7.203550815582e+00   7.203551769257e+00   7.201851844788e+00   7.198801517487e+00   7.195004463196e+00   7.191097259521e+00   7.187704086304e+00 
  7.184816837311e+00   7.183154582977e+00   7.182972908020e+00   0.000000000000e+00   0.000000000000e+00   7.141240119934e+00   7.140799522400e+00   7.140617370605e+00   7.141604423523e+00 
  7.144298553467e+00   7.148527145386e+00   7.153367042542e+00   7.157479286194e+00   7.159579277039e+00   7.158862113953e+00   7.155276298523e+00   7.149518966675e+00   7.142729759216e+00 
  7.136055946350e+00   7.130479335785e+00   7.126045227051e+00   7.123624801636e+00   7.123258590698e+00   0.000000000000e+00   0.000000000000e+00   7.059672355652e+00   7.057731151581e+00 
  7.055615901947e+00   7.055611133575e+00   7.059176445007e+00   7.066160202026e+00   7.074702739716e+00   7.082118034363e+00   7.085927963257e+00   7.084615230560e+00   7.078149795532e+00 
  7.067973613739e+00   7.056332588196e+00   7.045335769653e+00   7.036539077759e+00   7.030029773712e+00   7.026772022247e+00   7.026128768921e+00   0.000000000000e+00   0.000000000000e+00 
  6.724415302277e+00   6.719851016998e+00   6.714799404144e+00   6.713917255402e+00   6.720110416412e+00   6.733101367950e+00   6.749014377594e+00   6.762623310089e+00   6.769590377808e+00 
  6.767560005188e+00   6.756944656372e+00   6.740681648254e+00   6.722839832306e+00   6.706850051880e+00   6.694755554199e+00   6.686468601227e+00   6.682909488678e+00   6.682950019836e+00 
  0.000000000000e+00   0.000000000000e+00   6.835908889771e+00   6.824580192566e+00   6.811770915985e+00   6.807039260864e+00   6.816227912903e+00   6.839584350586e+00   6.869313240051e+00 
  6.895093917847e+00   6.909077167511e+00   6.907211303711e+00   6.890677928925e+00   6.864873886108e+00   6.836805820465e+00   6.812336921692e+00   6.794399738312e+00   6.782987117767e+00 
  6.779058933258e+00   6.780836105347e+00   0.000000000000e+00   0.000000000000e+00   6.999067306519e+00   6.966897487640e+00   6.930798053741e+00   6.912238121033e+00   6.925089836121e+00 
  6.973536491394e+00   7.037039756775e+00   7.091595172882e+00   7.123380184174e+00   7.124927520752e+00   7.098054885864e+00   7.052960395813e+00   7.004349231720e+00   6.964982986450e+00 
  6.938387870789e+00   6.923918247223e+00   6.922339916229e+00   6.930808544159e+00   0.000000000000e+00   0.000000000000e+00   7.160764217377e+00   7.071876525879e+00   6.982241630554e+00 
  6.929610729218e+00   6.944100379944e+00   7.052337646484e+00   7.187969207764e+00   7.292232513428e+00   7.351324081421e+00   7.355361461639e+00   7.305665969849e+00   7.220006465912e+00 
  7.132565975189e+00   7.074069023132e+00   7.039052009583e+00   7.022912979126e+00   7.029046058655e+00   7.059236526489e+00   0.000000000000e+00   0.000000000000e+00   7.688497543335e+00 
  7.438917160034e+00   7.255634307861e+00   7.143112659454e+00   7.135993480682e+00   7.376162052155e+00   7.657569885254e+00   7.838844776154e+00   7.941980838776e+00   7.950145244598e+00 
  7.871854782104e+00   7.731152057648e+00   7.583049297333e+00   7.510305881500e+00   7.467774391174e+00   7.446565628052e+00   7.466011047363e+00   7.561852931976e+00   0.000000000000e+00 
  0.000000000000e+00   8.410801887512e+00   7.589818954468e+00   7.293129920959e+00   7.102219104767e+00   6.943784236908e+00   7.517526626587e+00   8.138914108276e+00   8.420369148254e+00 
  8.602859497070e+00   8.595359802246e+00   8.484681129456e+00   8.289049148560e+00   8.016838073730e+00   7.963923931122e+00   7.919777393341e+00   7.887725830078e+00   7.936285018921e+00 
  8.255310058594e+00   0.000000000000e+00   0.000000000000e+00   6.945347309113e+00   6.701752185822e+00   6.828056812286e+00   6.543036460876e+00   5.393099308014e+00   7.126529693604e+00 
  8.723459243774e+00   8.909774780273e+00   9.453522682190e+00   9.240176200867e+00   8.920746803284e+00   8.921892166138e+00   8.239772796631e+00   8.389881134033e+00   8.353855133057e+00 
  8.299052238464e+00   8.283124923706e+00   8.024561882019e+00   0.000000000000e+00   0.000000000000e+00   1.021250343323e+01   4.564596176147e+00   6.240520477295e+00   7.108311176300e+00 
  2.296646118164e+00   5.848793506622e+00   9.595659255981e+00   9.090615272522e+00   1.043930912018e+01   9.333977699280e+00   8.370525360107e+00   9.499644279480e+00   8.610518455505e+00 
  9.463315963745e+00   8.872893333435e+00   8.820093154907e+00   8.821111679077e+00   9.291805267334e+00   0.000000000000e+00   0.000000000000e+00   0.000000000000e+00   0.000000000000e+00 
  0.000000000000e+00   0.000000000000e+00   0.000000000000e+00   0.000000000000e+00   0.000000000000e+00   0.000000000000e+00   0.000000000000e+00   0.000000000000e+00   0.000000000000e+00 
  0.000000000000e+00   0.000000000000e+00   0.000000000000e+00   0.000000000000e+00   0.000000000000e+00   0.000000000000e+00   0.000000000000e+00   0.000000000000e+00   0.000000000000e+00 
  0.000000000000e+00   0.000000000000e+00   0.000000000000e+00   0.000000000000e+00   0.000000000000e+00   0.000000000000e+00   0.000000000000e+00   0.000000000000e+00   0.000000000000e+00 
  0.000000000000e+00   0.000000000000e+00   0.000000000000e+00   0.000000000000e+00   0.000000000000e+00   0.000000000000e+00   0.000000000000e+00   0.000000000000e+00   0.000000000000e+00 
  0.000000000000e+00   0.000000000000e+00   6.667645454407e+00   6.667786598206e+00   6.668055057526e+00   6.668433666229e+00   6.668895721436e+00   6.669404506683e+00   6.669919490814e+00 
  6.670399665833e+00   6.670808792114e+00   6.671120166779e+00   6.671319961548e+00   6.671408176422e+00   6.671399593353e+00   6.671313762665e+00   6.671210289001e+00   6.671027660370e+00 
  6.670938968658e+00   6.671102523804e+00   0.000000000000e+00   0.000000000000e+00   6.646643161774e+00   6.646790504456e+00   6.647072315216e+00   6.647470951080e+00   6.647958278656e+00 
  6.648496627808e+00   6.649038314819e+00   6.649537086487e+00   6.649951457977e+00   6.650250911713e+00   6.650421619415e+00   6.650465488434e+00   6.650402545929e+00   6.650257110596e+00 
  6.650097370148e+00   6.649861812592e+00   6.649738311768e+00   6.649894237518e+00   0.000000000000e+00   0.000000000000e+00   6.598555564880e+00   6.598715305328e+00   6.599022388458e+00 
  6.599461078644e+00   6.600002765656e+00   6.600601673126e+00   6.601201057434e+00   6.601739406586e+00   6.602162837982e+00   6.602434158325e+00   6.602537155151e+00   6.602480888367e+00 
  6.602295398712e+00   6.602016448975e+00   6.601731777191e+00   6.601381778717e+00   6.601184844971e+00   6.601324081421e+00   0.000000000000e+00   0.000000000000e+00   6.531557559967e+00 
  6.531733989716e+00   6.532078266144e+00   6.532580852509e+00   6.533212184906e+00   6.533917903900e+00   6.534619808197e+00   6.535230159760e+00   6.535670757294e+00   6.535889148712e+00 
  6.535868644714e+00   6.535630226135e+00   6.535222530365e+00   6.534707546234e+00   6.534205913544e+00   6.533662319183e+00   6.533343315125e+00   6.533457279205e+00   0.000000000000e+00 
  0.000000000000e+00   6.434854984283e+00   6.435042858124e+00   6.435423374176e+00   6.436001300812e+00   6.436754703522e+00   6.437613964081e+00   6.438467025757e+00   6.439181327820e+00 
  6.439634323120e+00   6.439746856689e+00   6.439500808716e+00   6.438938617706e+00   6.438149929047e+00   6.437241554260e+00   6.436389446259e+00   6.435546398163e+00   6.435045719147e+00 
  6.435114860535e+00   0.000000000000e+00   0.000000000000e+00   6.310441493988e+00   6.310641288757e+00   6.311070919037e+00   6.311774253845e+00   6.312742710114e+00   6.313881874084e+00 
  6.315015792847e+00   6.315930366516e+00   6.316426277161e+00   6.316377162933e+00   6.315761089325e+00   6.314666748047e+00   6.313263416290e+00   6.311744213104e+00   6.310367107391e+00 
  6.309087753296e+00   6.308333873749e+00   6.308330059052e+00   0.000000000000e+00   0.000000000000e+00   6.205154418945e+00   6.205377101898e+00   6.205921649933e+00   6.206906795502e+00 
  6.208350181580e+00   6.210111618042e+00   6.211894989014e+00   6.213324546814e+00   6.214052677155e+00   6.213859558105e+00   6.212718009949e+00   6.210805416107e+00   6.208445072174e+00 
  6.205988407135e+00   6.203822135925e+00   6.201909542084e+00   6.200796604156e+00   6.200660705566e+00   0.000000000000e+00   0.000000000000e+00   6.117745876312e+00   6.117854595184e+00 
  6.118319034576e+00   6.119457721710e+00   6.121403217316e+00   6.123973846436e+00   6.126679420471e+00   6.128864288330e+00   6.129907131195e+00   6.129422187805e+00   6.127379894257e+00 
  6.124129295349e+00   6.120256423950e+00   6.116367816925e+00   6.113040447235e+00   6.110243797302e+00   6.108661651611e+00   6.108360767365e+00   0.000000000000e+00   0.000000000000e+00 
  5.978237152100e+00   5.978080272675e+00   5.978363037109e+00   5.979835987091e+00   5.982901573181e+00   5.987320423126e+00   5.992219924927e+00   5.996384143829e+00   5.998641014099e+00 
  5.998256206512e+00   5.995187282562e+00   5.990116119385e+00   5.984134674072e+00   5.978294372559e+00   5.973467826843e+00   5.969649314880e+00   5.967679977417e+00   5.967280387878e+00 
  0.000000000000e+00   0.000000000000e+00   5.896762847900e+00   5.895487785339e+00   5.894380092621e+00   5.895200729370e+00   5.898993015289e+00   5.905493259430e+00   5.913116455078e+00 
  5.919617176056e+00   5.922849655151e+00   5.921432018280e+00   5.915346145630e+00   5.905997753143e+00   5.895504474640e+00   5.885735511780e+00   5.878016948700e+00   5.872375488281e+00 
  5.869728565216e+00   5.869133949280e+00   0.000000000000e+00   0.000000000000e+00   5.767503738403e+00   5.763618469238e+00   5.759270191193e+00   5.758455753326e+00   5.763566970825e+00 
  5.774313449860e+00   5.787586688995e+00   5.799148082733e+00   5.805077075958e+00   5.802772998810e+00   5.792298316956e+00   5.776469707489e+00   5.759307861328e+00   5.744055747986e+00 
  5.732572078705e+00   5.724903583527e+00   5.721898555756e+00   5.721603870392e+00   0.000000000000e+00   0.000000000000e+00   5.760243415833e+00   5.750157356262e+00   5.738245964050e+00 
  5.733309268951e+00   5.740545749664e+00   5.759932994843e+00   5.784865856171e+00   5.806830406189e+00   5.818603992462e+00   5.815425872803e+00   5.797762870789e+00   5.771208286285e+00 
  5.743369102478e+00   5.719916343689e+00   5.703096866608e+00   5.692852497101e+00   5.689751625061e+00   5.691254138947e+00   0.000000000000e+00   0.000000000000e+00   5.837272644043e+00 
  5.811553478241e+00   5.781451225281e+00   5.766027450562e+00   5.776330947876e+00   5.814507007599e+00   5.864392757416e+00   5.907698631287e+00   5.931806087494e+00   5.927852630615e+00 
  5.897433280945e+00   5.851764678955e+00   5.805490970612e+00   5.769073963165e+00   5.744345664978e+00   5.730819225311e+00   5.728556156158e+00   5.735640048981e+00   0.000000000000e+00 
  0.000000000000e+00   6.068212509155e+00   6.002217769623e+00   5.929221630096e+00   5.887475490570e+00   5.899017333984e+00   5.978999614716e+00   6.082284450531e+00   6.166293144226e+00 
  6.212738990784e+00   6.206765174866e+00   6.152808189392e+00   6.071516513824e+00   5.991303920746e+00   5.933472633362e+00   5.896190166473e+00   5.877330780029e+00   5.877160549164e+00 
  5.896843433380e+00   0.000000000000e+00   0.000000000000e+00   6.538239002228e+00   6.365745067596e+00   6.199059963226e+00   6.096352100372e+00   6.092612743378e+00   6.275284767151e+00 
  6.499335765839e+00   6.654485225677e+00   6.732147693634e+00   6.717357158661e+00   6.625564575195e+00   6.489982604980e+00   6.355986118317e+00   6.269878864288e+00   6.215319156647e+00 
  6.187174797058e+00   6.190705776215e+00   6.239819526672e+00   0.000000000000e+00   0.000000000000e+00   7.287272453308e+00   6.818233013153e+00   6.471703529358e+00   6.242420673370e+00 
  6.130848407745e+00   6.602754116058e+00   7.136401653290e+00   7.405318260193e+00   7.490418910980e+00   7.434514999390e+00   7.283680915833e+00   7.069189548492e+00   6.850896835327e+00 
  6.753148078918e+00   6.693114757538e+00   6.649474143982e+00   6.652997970581e+00   6.777909755707e+00   0.000000000000e+00   0.000000000000e+00   7.814605236053e+00   6.885807037354e+00 
  6.291158199310e+00   5.774886131287e+00   4.998395919800e+00   6.456220149994e+00   7.871856689453e+00   8.350263595581e+00   8.354624748230e+00   8.121230125427e+00   7.704658508301e+00 
  7.423103809357e+00   6.995419979095e+00   6.954658508301e+00   6.938167572021e+00   6.881797790527e+00   6.871192455292e+00   6.978664398193e+00   0.000000000000e+00   0.000000000000e+00 
  9.608289718628e+00   7.731787681580e+00   6.875289440155e+00   6.527229785919e+00   2.327805042267e+00   6.555809497833e+00   9.761753082275e+00   1.061541175842e+01   1.031307315826e+01 
  9.389895439148e+00   7.901519775391e+00   8.434269905090e+00   7.951372623444e+00   8.131965637207e+00   8.121466636658e+00   8.102055549622e+00   8.068882942200e+00   7.860078334808e+00 
  0.000000000000e+00   0.000000000000e+00   0.000000000000e+00   0.000000000000e+00   0.000000000000e+00   0.000000000000e+00   0.000000000000e+00   0.000000000000e+00   0.000000000000e+00 
  0.000000000000e+00   0.000000000000e+00   0.000000000000e+00   0.000000000000e+00   0.000000000000e+00   0.000000000000e+00   0.000000000000e+00   0.000000000000e+00   0.000000000000e+00 
  0.000000000000e+00   0.000000000000e+00   0.000000000000e+00   0.000000000000e+00   0.000000000000e+00   0.000000000000e+00   0.000000000000e+00   0.000000000000e+00   0.000000000000e+00 
  0.000000000000e+00   0.000000000000e+00   0.000000000000e+00   0.000000000000e+00   0.000000000000e+00   0.000000000000e+00   0.000000000000e+00   0.000000000000e+00   0.000000000000e+00 
  0.000000000000e+00   0.000000000000e+00   0.000000000000e+00   0.000000000000e+00   0.000000000000e+00   0.000000000000e+00   5.628355026245e+00   5.628483295441e+00   5.628723621368e+00 
  5.629062652588e+00   5.629477024078e+00   5.629933357239e+00   5.630393505096e+00   5.630822181702e+00   5.631188392639e+00   5.631467819214e+00   5.631648063660e+00   5.631727695465e+00 
  5.631720542908e+00   5.631643295288e+00   5.631551265717e+00   5.631381988525e+00   5.631298065186e+00   5.631417751312e+00   0.000000000000e+00   0.000000000000e+00   5.603904724121e+00 
  5.604039192200e+00   5.604291439056e+00   5.604647636414e+00   5.605085372925e+00   5.605567932129e+00   5.606051445007e+00   5.606496334076e+00   5.606865882874e+00   5.607133388519e+00 
  5.607287406921e+00   5.607330799103e+00   5.607279777527e+00   5.607154369354e+00   5.607014656067e+00   5.606799125671e+00   5.606681823730e+00   5.606790065765e+00   0.000000000000e+00 
  0.000000000000e+00   5.555481433868e+00   5.555627822876e+00   5.555903434753e+00   5.556293964386e+00   5.556776523590e+00   5.557309150696e+00   5.557837009430e+00   5.558309078217e+00 
  5.558680057526e+00   5.558917045593e+00   5.559010505676e+00   5.558969497681e+00   5.558815479279e+00   5.558575630188e+00   5.558327198029e+00   5.558010101318e+00   5.557830333710e+00 
  5.557910919189e+00   0.000000000000e+00   0.000000000000e+00   5.482163906097e+00   5.482326984406e+00   5.482638835907e+00   5.483086585999e+00   5.483645915985e+00   5.484265804291e+00 
  5.484873294830e+00   5.485397338867e+00   5.485772132874e+00   5.485956192017e+00   5.485940456390e+00   5.485743999481e+00   5.485401630402e+00   5.484955787659e+00   5.484515666962e+00 
  5.484027862549e+00   5.483747959137e+00   5.483779430389e+00   0.000000000000e+00   0.000000000000e+00   5.384783744812e+00   5.384960174561e+00   5.385310173035e+00   5.385831356049e+00 
  5.386503219604e+00   5.387263774872e+00   5.388007640839e+00   5.388624191284e+00   5.389008998871e+00   5.389102458954e+00   5.388894557953e+00   5.388426303864e+00   5.387758731842e+00 
  5.386970996857e+00   5.386223793030e+00   5.385475158691e+00   5.385049343109e+00   5.385019302368e+00   0.000000000000e+00   0.000000000000e+00   5.273100376129e+00   5.273290634155e+00 
  5.273688316345e+00   5.274323463440e+00   5.275179386139e+00   5.276171207428e+00   5.277138233185e+00   5.277902126312e+00   5.278301715851e+00   5.278238773346e+00   5.277693748474e+00 
  5.276741504669e+00   5.275512695312e+00   5.274166584015e+00   5.272944450378e+00   5.271808624268e+00   5.271163940430e+00   5.271069049835e+00   0.000000000000e+00   0.000000000000e+00 