# vtk DataFile Version 2.0
Written using VisIt writer
ASCII
DATASET RECTILINEAR_GRID
DIMENSIONS 20 20 20
X_COORDINATES 20 float
  0.000000000000e+00   1.000000000000e+00   2.000000000000e+00   3.000000000000e+00   4.000000000000e+00   5.000000000000e+00   6.000000000000e+00   7.000000000000e+00   8.000000000000e+00 
  9.000000000000e+00   1.000000000000e+01   1.100000000000e+01   1.200000000000e+01   1.300000000000e+01   1.400000000000e+01   1.500000000000e+01   1.600000000000e+01   1.700000000000e+01 
  1.800000000000e+01   1.900000000000e+01 
Y_COORDINATES 20 float
  0.000000000000e+00   1.000000000000e+00   2.000000000000e+00   3.000000000000e+00   4.000000000000e+00   5.000000000000e+00   6.000000000000e+00   7.000000000000e+00   8.000000000000e+00 
  9.000000000000e+00   1.000000000000e+01   1.100000000000e+01   1.200000000000e+01   1.300000000000e+01   1.400000000000e+01   1.500000000000e+01   1.600000000000e+01   1.700000000000e+01 
  1.800000000000e+01   1.900000000000e+01 
Z_COORDINATES 20 float
  0.000000000000e+00   1.000000000000e+00   2.000000000000e+00   3.000000000000e+00   4.000000000000e+00   5.000000000000e+00   6.000000000000e+00   7.000000000000e+00   8.000000000000e+00 
  9.000000000000e+00   1.000000000000e+01   1.100000000000e+01   1.200000000000e+01   1.300000000000e+01   1.400000000000e+01   1.500000000000e+01   1.600000000000e+01   1.700000000000e+01 
  1.800000000000e+01   1.900000000000e+01 
CELL_DATA 6859
POINT_DATA 8000
SCALARS pressure float
LOOKUP_TABLE default
  0.000000000000e+00   0.000000000000e+00   0.000000000000e+00   0.000000000000e+00   0.000000000000e+00   0.000000000000e+00   0.000000000000e+00   0.000000000000e+00   0.000000000000e+00 
  0.000000000000e+00   0.000000000000e+00   0.000000000000e+00   0.000000000000e+00   0.000000000000e+00   0.000000000000e+00   0.000000000000e+00   0.000000000000e+00   0.000000000000e+00 
  0.000000000000e+00   0.000000000000e+00   0.000000000000e+00   0.000000000000e+00   0.000000000000e+00   0.000000000000e+00   0.000000000000e+00   0.000000000000e+00   0.000000000000e+00 
  0.000000000000e+00   0.000000000000e+00   0.000000000000e+00   0.000000000000e+00   0.000000000000e+00   0.000000000000e+00   0.000000000000e+00   0.000000000000e+00   0.000000000000e+00 
  0.000000000000e+00   0.000000000000e+00   0.000000000000e+00   0.000000000000e+00   0.000000000000e+00   0.000000000000e+00   0.000000000000e+00   0.000000000000e+00   0.000000000000e+00 
  0.000000000000e+00   0.000000000000e+00   0.000000000000e+00   0.000000000000e+00   0.000000000000e+00   0.000000000000e+00   0.000000000000e+00   0.000000000000e+00   0.000000000000e+00 
  0.000000000000e+00   0.000000000000e+00   0.000000000000e+00   0.000000000000e+00   0.000000000000e+00   0.000000000000e+00   0.000000000000e+00   0.000000000000e+00   0.000000000000e+00 
  0.000000000000e+00   0.000000000000e+00   0.000000000000e+00   0.000000000000e+00   0.000000000000e+00   0.000000000000e+00   0.000000000000e+00   0.000000000000e+00   0.000000000000e+00 
  0.000000000000e+00   0.000000000000e+00   0.000000000000e+00   0.000000000000e+00   0.000000000000e+00   0.000000000000e+00   0.000000000000e+00   0.000000000000e+00   0.000000000000e+00 
  0.000000000000e+00   0.000000000000e+00   0.000000000000e+00   0.000000000000e+00   0.000000000000e+00   0.000000000000e+00   0.000000000000e+00   0.000000000000e+00   0.000000000000e+00 
  0.000000000000e+00   0.000000000000e+00   0.000000000000e+00   0.000000000000e+00   0.000000000000e+00   0.000000000000e+00   0.000000000000e+00   0.000000000000e+00   0.000000000000e+00 
  0.000000000000e+00   0.000000000000e+00   0.000000000000e+00   0.000000000000e+00   0.000000000000e+00   0.000000000000e+00   0.000000000000e+00   0.000000000000e+00   0.000000000000e+00 
  0.000000000000e+00   0.000000000000e+00   0.000000000000e+00   0.000000000000e+00   0.000000000000e+00   0.000000000000e+00   0.000000000000e+00   0.000000000000e+00   0.000000000000e+00 
  0.000000000000e+00   0.000000000000e+00   0.000000000000e+00   0.000000000000e+00   0.000000000000e+00   0.000000000000e+00   0.000000000000e+00   0.000000000000e+00   0.000000000000e+00 
  0.000000000000e+00   0.000000000000e+00   0.000000000000e+00   0.000000000000e+00   0.000000000000e+00   0.000000000000e+00   0.000000000000e+00   0.000000000000e+00   0.000000000000e+00 
  0.000000000000e+00   0.000000000000e+00   0.000000000000e+00   0.000000000000e+00   0.000000000000e+00   0.000000000000e+00   0.000000000000e+00   0.000000000000e+00   0.000000000000e+00 
  0.000000000000e+00   0.000000000000e+00   0.000000000000e+00   0.000000000000e+00   0.000000000000e+00   0.000000000000e+00   0.000000000000e+00   0.000000000000e+00   0.000000000000e+00 
  0.000000000000e+00   0.000000000000e+00   0.000000000000e+00   0.000000000000e+00   0.000000000000e+00   0.000000000000e+00   0.000000000000e+00   0.000000000000e+00   0.000000000000e+00 
  0.000000000000e+00   0.000000000000e+00   0.000000000000e+00   0.000000000000e+00   0.000000000000e+00   0.000000000000e+00   0.000000000000e+00   0.000000000000e+00   0.000000000000e+00 
  0.000000000000e+00   0.000000000000e+00   0.000000000000e+00   0.000000000000e+00   0.000000000000e+00   0.000000000000e+00   0.000000000000e+00   0.000000000000e+00   0.000000000000e+00 
  0.000000000000e+00   0.000000000000e+00   0.000000000000e+00   0.000000000000e+00   0.000000000000e+00   0.000000000000e+00   0.000000000000e+00   0.000000000000e+00   0.000000000000e+00 
  0.000000000000e+00   0.000000000000e+00   0.000000000000e+00   0.000000000000e+00   0.000000000000e+00   0.000000000000e+00   0.000000000000e+00   0.000000000000e+00   0.000000000000e+00 
  0.000000000000e+00   0.000000000000e+00   0.000000000000e+00   0.000000000000e+00   0.000000000000e+00   0.000000000000e+00   0.000000000000e+00   0.000000000000e+00   0.000000000000e+00 
  0.000000000000e+00   0.000000000000e+00   0.000000000000e+00   0.000000000000e+00   0.000000000000e+00   0.000000000000e+00   0.000000000000e+00   0.000000000000e+00   0.000000000000e+00 
  0.000000000000e+00   0.000000000000e+00   0.000000000000e+00   0.000000000000e+00   0.000000000000e+00   0.000000000000e+00   0.000000000000e+00   0.000000000000e+00   0.000000000000e+00 
  0.000000000000e+00   0.000000000000e+00   0.000000000000e+00   0.000000000000e+00   0.000000000000e+00   0.000000000000e+00   0.000000000000e+00   0.000000000000e+00   0.000000000000e+00 
  0.000000000000e+00   0.000000000000e+00   0.000000000000e+00   0.000000000000e+00   0.000000000000e+00   0.000000000000e+00   0.000000000000e+00   0.000000000000e+00   0.000000000000e+00 
  0.000000000000e+00   0.000000000000e+00   0.000000000000e+00   0.000000000000e+00   0.000000000000e+00   0.000000000000e+00   0.000000000000e+00   0.000000000000e+00   0.000000000000e+00 
  0.000000000000e+00   0.000000000000e+00   0.000000000000e+00   0.000000000000e+00   0.000000000000e+00   0.000000000000e+00   0.000000000000e+00   0.000000000000e+00   0.000000000000e+00 
  0.000000000000e+00   0.000000000000e+00   0.000000000000e+00   0.000000000000e+00   0.000000000000e+00   0.000000000000e+00   0.000000000000e+00   0.000000000000e+00   0.000000000000e+00 
  0.000000000000e+00   0.000000000000e+00   0.000000000000e+00   0.000000000000e+00   0.000000000000e+00   0.000000000000e+00   0.000000000000e+00   0.000000000000e+00   0.000000000000e+00 
  0.000000000000e+00   0.000000000000e+00   0.000000000000e+00   0.000000000000e+00   0.000000000000e+00   0.000000000000e+00   0.000000000000e+00   0.000000000000e+00   0.000000000000e+00 
  0.000000000000e+00   0.000000000000e+00   0.000000000000e+00   0.000000000000e+00   0.000000000000e+00   0.000000000000e+00   0.000000000000e+00   0.000000000000e+00   0.000000000000e+00 
  0.000000000000e+00   0.000000000000e+00   0.000000000000e+00   0.000000000000e+00   0.000000000000e+00   0.000000000000e+00   0.000000000000e+00   0.000000000000e+00   0.000000000000e+00 
  0.000000000000e+00   0.000000000000e+00   0.000000000000e+00   0.000000000000e+00   0.000000000000e+00   0.000000000000e+00   0.000000000000e+00   0.000000000000e+00   0.000000000000e+00 
  0.000000000000e+00   0.000000000000e+00   0.000000000000e+00   0.000000000000e+00   0.000000000000e+00   0.000000000000e+00   0.000000000000e+00   0.000000000000e+00   0.000000000000e+00 
  0.000000000000e+00   0.000000000000e+00   0.000000000000e+00   0.000000000000e+00   0.000000000000e+00   0.000000000000e+00   0.000000000000e+00   0.000000000000e+00   0.000000000000e+00 
  0.000000000000e+00   0.000000000000e+00   0.000000000000e+00   0.000000000000e+00   0.000000000000e+00   0.000000000000e+00   0.000000000000e+00   0.000000000000e+00   0.000000000000e+00 
  0.000000000000e+00   0.000000000000e+00   0.000000000000e+00   0.000000000000e+00   0.000000000000e+00   0.000000000000e+00   0.000000000000e+00   0.000000000000e+00   0.000000000000e+00 
  0.000000000000e+00   0.000000000000e+00   0.000000000000e+00   0.000000000000e+00   0.000000000000e+00   0.000000000000e+00   0.000000000000e+00   0.000000000000e+00   0.000000000000e+00 
  0.000000000000e+00   0.000000000000e+00   0.000000000000e+00   0.000000000000e+00   0.000000000000e+00   0.000000000000e+00   0.000000000000e+00   0.000000000000e+00   0.000000000000e+00 
  0.000000000000e+00   0.000000000000e+00   0.000000000000e+00   0.000000000000e+00   0.000000000000e+00   0.000000000000e+00   0.000000000000e+00   0.000000000000e+00   0.000000000000e+00 
  0.000000000000e+00   0.000000000000e+00   0.000000000000e+00   0.000000000000e+00   0.000000000000e+00   0.000000000000e+00   0.000000000000e+00   0.000000000000e+00   0.000000000000e+00 
  0.000000000000e+00   0.000000000000e+00   0.000000000000e+00   0.000000000000e+00   0.000000000000e+00   0.000000000000e+00   0.000000000000e+00   0.000000000000e+00   0.000000000000e+00 
  0.000000000000e+00   0.000000000000e+00   0.000000000000e+00   0.000000000000e+00   0.000000000000e+00   0.000000000000e+00   0.000000000000e+00   0.000000000000e+00   0.000000000000e+00 
  0.000000000000e+00   0.000000000000e+00   0.000000000000e+00   0.000000000000e+00   0.000000000000e+00   0.000000000000e+00   0.000000000000e+00   0.000000000000e+00   0.000000000000e+00 
  0.000000000000e+00   0.000000000000e+00   0.000000000000e+00   0.000000000000e+00   0.000000000000e+00   0.000000000000e+00   0.000000000000e+00   8.731882095337e+00   8.732379913330e+00 
  8.733304023743e+00   8.734533309937e+00   8.735928535461e+00   8.737361907959e+00   8.738735198975e+00   8.739980697632e+00   8.741065979004e+00   8.741979598999e+00   8.742729187012e+00 
  8.743330001831e+00   8.743803024292e+00   8.744167327881e+00   8.744437217712e+00   8.744647979736e+00   8.744707107544e+00   8.745030403137e+00   0.000000000000e+00   0.000000000000e+00 
  8.636150360107e+00   8.636726379395e+00   8.637780189514e+00   8.639159202576e+00   8.640692710876e+00   8.642232894897e+00   8.643672943115e+00   8.644950866699e+00   8.646037101746e+00 
  8.646931648254e+00   8.647648811340e+00   8.648210525513e+00   8.648642539978e+00   8.648968696594e+00   8.649205207825e+00   8.649390220642e+00   8.649429321289e+00   8.649757385254e+00 
  0.000000000000e+00   0.000000000000e+00   8.485516548157e+00   8.486301422119e+00   8.487711906433e+00   8.489500045776e+00   8.491416931152e+00   8.493267059326e+00   8.494924545288e+00 
  8.496330261230e+00   8.497473716736e+00   8.498373031616e+00   8.499059677124e+00   8.499570846558e+00   8.499942779541e+00   8.500209808350e+00   8.500392913818e+00   8.500537872314e+00 
  8.500542640686e+00   8.500885009766e+00   0.000000000000e+00   0.000000000000e+00   8.272902488708e+00   8.274085044861e+00   8.276149749756e+00   8.278661727905e+00   8.281225204468e+00 
  8.283567428589e+00   8.285546302795e+00   8.287119865417e+00   8.288313865662e+00   8.289183616638e+00   8.289791107178e+00   8.290197372437e+00   8.290453910828e+00   8.290610313416e+00 
  8.290697097778e+00   8.290769577026e+00   8.290717124939e+00   8.291076660156e+00   0.000000000000e+00   0.000000000000e+00   7.936439990997e+00   7.938324451447e+00   7.941481113434e+00 
  7.945112705231e+00   7.948584556580e+00   7.951532363892e+00   7.953824043274e+00   7.955480098724e+00   7.956599235535e+00   7.957302570343e+00   7.957696437836e+00   7.957866191864e+00 
  7.957888126373e+00   7.957830429077e+00   7.957739830017e+00   7.957680702209e+00   7.957530021667e+00   7.957902908325e+00   0.000000000000e+00   0.000000000000e+00   7.444917678833e+00 
  7.448008060455e+00   7.452881336212e+00   7.458082675934e+00   7.462635517120e+00   7.466123104095e+00   7.468523502350e+00   7.469999790192e+00   7.470779895782e+00   7.471082687378e+00 
  7.471059322357e+00   7.470809459686e+00   7.470433712006e+00   7.470027923584e+00   7.469658374786e+00   7.469398498535e+00   7.469109058380e+00   7.469486713409e+00   0.000000000000e+00 
  0.000000000000e+00   6.899836063385e+00   6.905655860901e+00   6.914207458496e+00   6.922617912292e+00   6.929381847382e+00   6.934054851532e+00   6.936864852905e+00   6.938238143921e+00 
  6.938632965088e+00   6.938463211060e+00   6.937939167023e+00   6.937146663666e+00   6.936234951019e+00   6.935361862183e+00   6.934629440308e+00   6.934121131897e+00   6.933671951294e+00 
  6.934054374695e+00   0.000000000000e+00   0.000000000000e+00   6.270992755890e+00   6.282064437866e+00   6.296641349792e+00   6.309341907501e+00   6.318359375000e+00   6.323537349701e+00 
  6.325860977173e+00   6.326236248016e+00   6.325463771820e+00   6.324292659760e+00   6.322910785675e+00   6.321210384369e+00   6.319434165955e+00   6.317857742310e+00   6.316622257233e+00 
  6.315799713135e+00   6.315178394318e+00   6.315550327301e+00   0.000000000000e+00   0.000000000000e+00   5.209204196930e+00   5.229341030121e+00   5.252445697784e+00   5.269492626190e+00 
  5.279366016388e+00   5.283357620239e+00   5.283960819244e+00   5.282354354858e+00   5.279543876648e+00   5.276995658875e+00   5.274662971497e+00   5.271738529205e+00   5.268794059753e+00 
  5.266354560852e+00   5.264573574066e+00   5.263465404510e+00   5.262740612030e+00   5.263094902039e+00   0.000000000000e+00   0.000000000000e+00   4.068944454193e+00   4.105087757111e+00 
  4.137210369110e+00   4.155541896820e+00   4.166489124298e+00   4.167213439941e+00   4.164597988129e+00   4.160333633423e+00   4.154813766479e+00   4.151053428650e+00   4.148377418518e+00 
  4.144161701202e+00   4.140014648438e+00   4.136858463287e+00   4.134715557098e+00   4.133481025696e+00   4.132785797119e+00   4.133120536804e+00   0.000000000000e+00   0.000000000000e+00 
  2.674767494202e+00   2.712613344193e+00   2.729397773743e+00   2.729249715805e+00   2.728824615479e+00   2.717753410339e+00   2.708228111267e+00   2.701541423798e+00   2.695158720016e+00 
  2.691668272018e+00   2.689817428589e+00   2.686013936996e+00   2.682374238968e+00   2.679823637009e+00   2.678190231323e+00   2.677299022675e+00   2.676820755005e+00   2.677104234695e+00 
  0.000000000000e+00   0.000000000000e+00   0.000000000000e+00   0.000000000000e+00   0.000000000000e+00   0.000000000000e+00   0.000000000000e+00   0.000000000000e+00   0.000000000000e+00 
  0.000000000000e+00   0.000000000000e+00   0.000000000000e+00   0.000000000000e+00   0.000000000000e+00   0.000000000000e+00   0.000000000000e+00   0.000000000000e+00   0.000000000000e+00 
  0.000000000000e+00   0.000000000000e+00   0.000000000000e+00   0.000000000000e+00   0.000000000000e+00   0.000000000000e+00   0.000000000000e+00   0.000000000000e+00   0.000000000000e+00 
  0.000000000000e+00   0.000000000000e+00   0.000000000000e+00   0.000000000000e+00   0.000000000000e+00   0.000000000000e+00   0.000000000000e+00   0.000000000000e+00   0.000000000000e+00 
  0.000000000000e+00   0.000000000000e+00   0.000000000000e+00   0.000000000000e+00   0.000000000000e+00   0.000000000000e+00   0.000000000000e+00   0.000000000000e+00   0.000000000000e+00 
  0.000000000000e+00   0.000000000000e+00   0.000000000000e+00   0.000000000000e+00   0.000000000000e+00   0.000000000000e+00   0.000000000000e+00   0.000000000000e+00   0.000000000000e+00 
  0.000000000000e+00   0.000000000000e+00   0.000000000000e+00   0.000000000000e+00   0.000000000000e+00   0.000000000000e+00   0.000000000000e+00   0.000000000000e+00   0.000000000000e+00 
  0.000000000000e+00   0.000000000000e+00   0.000000000000e+00   0.000000000000e+00   0.000000000000e+00   0.000000000000e+00   0.000000000000e+00   0.000000000000e+00   0.000000000000e+00 
  0.000000000000e+00   0.000000000000e+00   0.000000000000e+00   0.000000000000e+00   0.000000000000e+00   0.000000000000e+00   0.000000000000e+00   0.000000000000e+00   0.000000000000e+00 
  0.000000000000e+00   0.000000000000e+00   0.000000000000e+00   0.000000000000e+00   0.000000000000e+00   0.000000000000e+00   0.000000000000e+00   0.000000000000e+00   0.000000000000e+00 
  0.000000000000e+00   0.000000000000e+00   0.000000000000e+00   0.000000000000e+00   0.000000000000e+00   0.000000000000e+00   0.000000000000e+00   0.000000000000e+00   0.000000000000e+00 
  0.000000000000e+00   0.000000000000e+00   0.000000000000e+00   0.000000000000e+00   0.000000000000e+00   0.000000000000e+00   0.000000000000e+00   0.000000000000e+00   0.000000000000e+00 
  0.000000000000e+00   0.000000000000e+00   0.000000000000e+00   0.000000000000e+00   0.000000000000e+00   0.000000000000e+00   0.000000000000e+00   0.000000000000e+00   0.000000000000e+00 
  0.000000000000e+00   0.000000000000e+00   0.000000000000e+00   0.000000000000e+00   0.000000000000e+00   0.000000000000e+00   0.000000000000e+00   0.000000000000e+00   0.000000000000e+00 
  0.000000000000e+00   0.000000000000e+00   0.000000000000e+00   0.000000000000e+00   0.000000000000e+00   0.000000000000e+00   0.000000000000e+00   0.000000000000e+00   0.000000000000e+00 
  0.000000000000e+00   0.000000000000e+00   0.000000000000e+00   0.000000000000e+00   0.000000000000e+00   0.000000000000e+00   0.000000000000e+00   0.000000000000e+00   0.000000000000e+00 
  0.000000000000e+00   0.000000000000e+00   0.000000000000e+00   0.000000000000e+00   0.000000000000e+00   0.000000000000e+00   0.000000000000e+00   0.000000000000e+00   0.000000000000e+00 
  0.000000000000e+00   0.000000000000e+00   0.000000000000e+00   0.000000000000e+00   0.000000000000e+00   0.000000000000e+00   0.000000000000e+00   0.000000000000e+00   0.000000000000e+00 
  0.000000000000e+00   0.000000000000e+00   0.000000000000e+00   0.000000000000e+00   0.000000000000e+00   0.000000000000e+00   0.000000000000e+00   0.000000000000e+00   0.000000000000e+00 
  0.000000000000e+00   0.000000000000e+00   0.000000000000e+00   0.000000000000e+00   0.000000000000e+00   0.000000000000e+00   0.000000000000e+00   0.000000000000e+00   0.000000000000e+00 
  0.000000000000e+00   0.000000000000e+00   7.785729885101e+00   7.786208152771e+00   7.787095069885e+00   7.788276195526e+00   7.789618968964e+00   7.791001796722e+00   7.792329311371e+00 
  7.793539047241e+00   7.794596672058e+00   7.795493125916e+00   7.796233654022e+00   7.796832561493e+00   7.797308444977e+00   7.797678947449e+00   7.797955989838e+00   7.798173904419e+00 
  7.798239707947e+00   7.798560619354e+00   0.000000000000e+00   0.000000000000e+00   7.692976474762e+00   7.693527698517e+00   7.694537639618e+00   7.695858955383e+00   7.697330474854e+00 
  7.698812007904e+00   7.700202465057e+00   7.701440334320e+00   7.702499866486e+00   7.703378200531e+00   7.704089164734e+00   7.704652786255e+00   7.705091953278e+00   7.705427646637e+00 
  7.705674648285e+00   7.705869674683e+00   7.705917358398e+00   7.706243515015e+00   0.000000000000e+00   0.000000000000e+00   7.540638446808e+00   7.541387081146e+00   7.542729377747e+00 
  7.544432163239e+00   7.546258926392e+00   7.548026561737e+00   7.549616813660e+00   7.550973892212e+00   7.552086353302e+00   7.552970409393e+00   7.553655624390e+00   7.554175376892e+00 
  7.554563045502e+00   7.554848194122e+00   7.555050373077e+00   7.555211067200e+00   7.555229187012e+00   7.555572509766e+00   0.000000000000e+00   0.000000000000e+00   7.325323581696e+00 
  7.326446056366e+00   7.328396797180e+00   7.330762386322e+00   7.333174228668e+00   7.335380077362e+00   7.337250232697e+00   7.338748931885e+00   7.339898109436e+00   7.340748310089e+00 
  7.341357707977e+00   7.341779232025e+00   7.342061519623e+00   7.342246532440e+00   7.342362880707e+00   7.342459678650e+00   7.342424869537e+00   7.342792510986e+00   0.000000000000e+00 
  0.000000000000e+00   6.990477561951e+00   6.992292404175e+00   6.995300292969e+00   6.998731613159e+00   7.001996040344e+00   7.004766941071e+00   7.006931304932e+00   7.008511543274e+00 
  7.009598731995e+00   7.010304450989e+00   7.010725498199e+00   7.010939598083e+00   7.011014461517e+00   7.011009693146e+00   7.010967254639e+00   7.010946273804e+00   7.010820865631e+00 
  7.011212825775e+00   0.000000000000e+00   0.000000000000e+00   6.510967731476e+00   6.514115810394e+00   6.518968582153e+00   6.524044990540e+00   6.528436660767e+00   6.531793594360e+00 
  6.534118652344e+00   6.535574913025e+00   6.536377906799e+00   6.536736965179e+00   6.536791324615e+00   6.536629199982e+00   6.536342620850e+00   6.536018371582e+00   6.535716056824e+00 
  6.535506725311e+00   6.535246849060e+00   6.535661220551e+00   0.000000000000e+00   0.000000000000e+00   5.933021545410e+00   5.939299106598e+00   5.948102474213e+00   5.956451416016e+00 
  5.963033199310e+00   5.967587947845e+00   5.970378875732e+00   5.971806526184e+00   5.972302436829e+00   5.972274303436e+00   5.971910476685e+00   5.971267700195e+00   5.970492362976e+00 
  5.969736099243e+00   5.969095230103e+00   5.968656063080e+00   5.968243598938e+00   5.968692302704e+00   0.000000000000e+00   0.000000000000e+00   5.296370983124e+00   5.309885025024e+00 
  5.326128005981e+00   5.339407920837e+00   5.348604679108e+00   5.354051113129e+00   5.356729507446e+00   5.357442378998e+00   5.356945514679e+00   5.356097221375e+00   5.355030536652e+00 
  5.353510379791e+00   5.351859092712e+00   5.350378513336e+00   5.349218368530e+00   5.348461627960e+00   5.347877502441e+00   5.348360061646e+00   0.000000000000e+00   0.000000000000e+00 
  4.350485801697e+00   4.381832122803e+00   4.412271499634e+00   4.431410789490e+00   4.440800666809e+00   4.443902492523e+00   4.443767547607e+00   4.441446781158e+00   4.437877178192e+00 
  4.435299873352e+00   4.433192253113e+00   4.429840087891e+00   4.426523685455e+00   4.423879623413e+00   4.422007560730e+00   4.420914649963e+00   4.420250415802e+00   4.420780181885e+00 
  0.000000000000e+00   0.000000000000e+00   3.138756513596e+00   3.215242147446e+00   3.268242597580e+00   3.291595458984e+00   3.300620555878e+00   3.297797679901e+00   3.293039560318e+00 
  3.285905599594e+00   3.275520086288e+00   3.271301507950e+00   3.270054817200e+00   3.262746334076e+00   3.256402254105e+00   3.252296209335e+00   3.249738931656e+00   3.248502492905e+00 
  3.248063564301e+00   3.248703241348e+00   0.000000000000e+00   0.000000000000e+00   1.847102046013e+00   2.015363693237e+00   2.087068796158e+00   2.099594831467e+00   2.099669218063e+00 
  2.084925651550e+00   2.075339078903e+00   2.065498352051e+00   2.050920724869e+00   2.046175241470e+00   2.046587944031e+00   2.036988973618e+00   2.029117107391e+00   2.024589061737e+00 
  2.021829128265e+00   2.020427703857e+00   2.019913196564e+00   2.020351409912e+00   0.000000000000e+00   0.000000000000e+00   0.000000000000e+00   0.000000000000e+00   0.000000000000e+00 
  0.000000000000e+00   0.000000000000e+00   0.000000000000e+00   0.000000000000e+00   0.000000000000e+00   0.000000000000e+00   0.000000000000e+00   0.000000000000e+00   0.000000000000e+00 
  0.000000000000e+00   0.000000000000e+00   0.000000000000e+00   0.000000000000e+00   0.000000000000e+00   0.000000000000e+00   0.000000000000e+00   0.000000000000e+00   0.000000000000e+00 
  0.000000000000e+00   0.000000000000e+00   0.000000000000e+00   0.000000000000e+00   0.000000000000e+00   0.000000000000e+00   0.000000000000e+00   0.000000000000e+00   0.000000000000e+00 
  0.000000000000e+00   0.000000000000e+00   0.000000000000e+00   0.000000000000e+00   0.000000000000e+00   0.000000000000e+00   0.000000000000e+00   0.000000000000e+00   0.000000000000e+00 
  0.000000000000e+00   0.000000000000e+00   0.000000000000e+00   0.000000000000e+00   0.000000000000e+00   0.000000000000e+00   0.000000000000e+00   0.000000000000e+00   0.000000000000e+00 
  0.000000000000e+00   0.000000000000e+00   0.000000000000e+00   0.000000000000e+00   0.000000000000e+00   0.000000000000e+00   0.000000000000e+00   0.000000000000e+00   0.000000000000e+00 
  0.000000000000e+00   0.000000000000e+00   0.000000000000e+00   0.000000000000e+00   0.000000000000e+00   0.000000000000e+00   0.000000000000e+00   0.000000000000e+00   0.000000000000e+00 
  0.000000000000e+00   0.000000000000e+00   0.000000000000e+00   0.000000000000e+00   0.000000000000e+00   0.000000000000e+00   0.000000000000e+00   0.000000000000e+00   0.000000000000e+00 
  0.000000000000e+00   0.000000000000e+00   0.000000000000e+00   0.000000000000e+00   0.000000000000e+00   0.000000000000e+00   0.000000000000e+00   0.000000000000e+00   0.000000000000e+00 
  0.000000000000e+00   0.000000000000e+00   0.000000000000e+00   0.000000000000e+00   0.000000000000e+00   0.000000000000e+00   0.000000000000e+00   0.000000000000e+00   0.000000000000e+00 
  0.000000000000e+00   0.000000000000e+00   0.000000000000e+00   0.000000000000e+00   0.000000000000e+00   0.000000000000e+00   0.000000000000e+00   0.000000000000e+00   0.000000000000e+00 
  0.000000000000e+00   0.000000000000e+00   0.000000000000e+00   0.000000000000e+00   0.000000000000e+00   0.000000000000e+00   0.000000000000e+00   0.000000000000e+00   0.000000000000e+00 
  0.000000000000e+00   0.000000000000e+00   0.000000000000e+00   0.000000000000e+00   0.000000000000e+00   0.000000000000e+00   0.000000000000e+00   0.000000000000e+00   0.000000000000e+00 
  0.000000000000e+00   0.000000000000e+00   0.000000000000e+00   0.000000000000e+00   0.000000000000e+00   0.000000000000e+00   0.000000000000e+00   0.000000000000e+00   0.000000000000e+00 
  0.000000000000e+00   0.000000000000e+00   0.000000000000e+00   0.000000000000e+00   0.000000000000e+00   0.000000000000e+00   0.000000000000e+00   0.000000000000e+00   0.000000000000e+00 
  0.000000000000e+00   0.000000000000e+00   0.000000000000e+00   0.000000000000e+00   0.000000000000e+00   0.000000000000e+00   0.000000000000e+00   0.000000000000e+00   0.000000000000e+00 
  0.000000000000e+00   0.000000000000e+00   0.000000000000e+00   0.000000000000e+00   0.000000000000e+00   0.000000000000e+00   0.000000000000e+00   0.000000000000e+00   0.000000000000e+00 
  0.000000000000e+00   0.000000000000e+00   0.000000000000e+00   0.000000000000e+00   0.000000000000e+00   0.000000000000e+00   0.000000000000e+00   0.000000000000e+00   0.000000000000e+00 
  0.000000000000e+00   0.000000000000e+00   0.000000000000e+00   0.000000000000e+00   0.000000000000e+00   0.000000000000e+00   0.000000000000e+00   0.000000000000e+00   0.000000000000e+00 
  0.000000000000e+00   0.000000000000e+00   0.000000000000e+00   0.000000000000e+00   0.000000000000e+00   0.000000000000e+00   6.866970539093e+00   6.867409229279e+00   6.868224143982e+00 
  6.869309902191e+00   6.870548248291e+00   6.871827602386e+00   6.873062133789e+00   6.874193191528e+00   6.875190734863e+00   6.876044750214e+00   6.876758575439e+00   6.877345085144e+00 
  6.877818584442e+00   6.878193855286e+00   6.878479957581e+00   6.878707408905e+00   6.878784179688e+00   6.879097461700e+00   0.000000000000e+00   0.000000000000e+00   6.779451847076e+00 
  6.779957294464e+00   6.780883789062e+00   6.782098770142e+00   6.783455371857e+00   6.784827709198e+00   6.786123752594e+00   6.787286281586e+00   6.788290977478e+00   6.789134979248e+00 
  6.789828777313e+00   6.790389537811e+00   6.790836334229e+00   6.791186332703e+00   6.791450500488e+00   6.791660785675e+00   6.791724205017e+00   6.792045116425e+00   0.000000000000e+00 
  0.000000000000e+00   6.625083923340e+00   6.625761032104e+00   6.626974582672e+00   6.628515243530e+00   6.630174160004e+00   6.631787300110e+00   6.633250236511e+00   6.634511947632e+00 
  6.635561466217e+00   6.636411190033e+00   6.637085914612e+00   6.637614727020e+00   6.638023853302e+00   6.638337612152e+00   6.638569355011e+00   6.638756275177e+00   6.638796806335e+00 
  6.639140605927e+00   0.000000000000e+00   0.000000000000e+00   6.411775588989e+00   6.412787437439e+00   6.414540767670e+00   6.416666030884e+00   6.418837547302e+00   6.420836925507e+00 
  6.422551155090e+00   6.423947811127e+00   6.425043106079e+00   6.425880432129e+00   6.426507949829e+00   6.426971435547e+00   6.427309989929e+00   6.427556514740e+00   6.427730560303e+00 
  6.427875041962e+00   6.427875518799e+00   6.428256511688e+00   0.000000000000e+00   0.000000000000e+00   6.091717243195e+00   6.093364715576e+00   6.096071243286e+00   6.099143028259e+00 
  6.102066040039e+00   6.104566574097e+00   6.106552600861e+00   6.108042240143e+00   6.109109878540e+00   6.109849452972e+00   6.110343933105e+00   6.110658168793e+00   6.110846996307e+00 
  6.110955238342e+00   6.111011505127e+00   6.111067771912e+00   6.110993385315e+00   6.111421585083e+00   0.000000000000e+00   0.000000000000e+00   5.635529041290e+00   5.638511180878e+00 
  5.643018722534e+00   5.647679328918e+00   5.651710510254e+00   5.654841899872e+00   5.657084465027e+00   5.658572673798e+00   5.659487247467e+00   5.660004615784e+00   5.660249710083e+00 
  5.660301208496e+00   5.660231113434e+00   5.660102367401e+00   5.659957885742e+00   5.659864425659e+00   5.659669399261e+00   5.660158157349e+00   0.000000000000e+00   0.000000000000e+00 