# vtk DataFile Version 2.0
Written using VisIt writer
ASCII
DATASET RECTILINEAR_GRID
DIMENSIONS 20 20 20
X_COORDINATES 20 float
  0.000000000000e+00   1.000000000000e+00   2.000000000000e+00   3.000000000000e+00   4.000000000000e+00   5.000000000000e+00   6.000000000000e+00   7.000000000000e+00   8.000000000000e+00 
  9.000000000000e+00   1.000000000000e+01   1.100000000000e+01   1.200000000000e+01   1.300000000000e+01   1.400000000000e+01   1.500000000000e+01   1.600000000000e+01   1.700000000000e+01 
  1.800000000000e+01   1.900000000000e+01 
Y_COORDINATES 20 float
  0.000000000000e+00   1.000000000000e+00   2.000000000000e+00   3.000000000000e+00   4.000000000000e+00   5.000000000000e+00   6.000000000000e+00   7.000000000000e+00   8.000000000000e+00 
  9.000000000000e+00   1.000000000000e+01   1.100000000000e+01   1.200000000000e+01   1.300000000000e+01   1.400000000000e+01   1.500000000000e+01   1.600000000000e+01   1.700000000000e+01 
  1.800000000000e+01   1.900000000000e+01 
Z_COORDINATES 20 float
  0.000000000000e+00   1.000000000000e+00   2.000000000000e+00   3.000000000000e+00   4.000000000000e+00   5.000000000000e+00   6.000000000000e+00   7.000000000000e+00   8.000000000000e+00 
  9.000000000000e+00   1.000000000000e+01   1.100000000000e+01   1.200000000000e+01   1.300000000000e+01   1.400000000000e+01   1.500000000000e+01   1.600000000000e+01   1.700000000000e+01 
  1.800000000000e+01   1.900000000000e+01 
CELL_DATA 6859
POINT_DATA 8000
SCALARS pressure float
LOOKUP_TABLE default
  0.000000000000e+00   0.000000000000e+00   0.000000000000e+00   0.000000000000e+00   0.000000000000e+00   0.000000000000e+00   0.000000000000e+00   0.000000000000e+00   0.000000000000e+00 
  0.000000000000e+00   0.000000000000e+00   0.000000000000e+00   0.000000000000e+00   0.000000000000e+00   0.000000000000e+00   0.000000000000e+00   0.000000000000e+00   0.000000000000e+00 
  0.000000000000e+00   0.000000000000e+00   0.000000000000e+00   0.000000000000e+00   0.000000000000e+00   0.000000000000e+00   0.000000000000e+00   0.000000000000e+00   0.000000000000e+00 
  0.000000000000e+00   0.000000000000e+00   0.000000000000e+00   0.000000000000e+00   0.000000000000e+00   0.000000000000e+00   0.000000000000e+00   0.000000000000e+00   0.000000000000e+00 
  0.000000000000e+00   0.000000000000e+00   0.000000000000e+00   0.000000000000e+00   0.000000000000e+00   0.000000000000e+00   0.000000000000e+00   0.000000000000e+00   0.000000000000e+00 
  0.000000000000e+00   0.000000000000e+00   0.000000000000e+00   0.000000000000e+00   0.000000000000e+00   0.000000000000e+00   0.000000000000e+00   0.000000000000e+00   0.000000000000e+00 
  0.000000000000e+00   0.000000000000e+00   0.000000000000e+00   0.000000000000e+00   0.000000000000e+00   0.000000000000e+00   0.000000000000e+00   0.000000000000e+00   0.000000000000e+00 
  0.000000000000e+00   0.000000000000e+00   0.000000000000e+00   0.000000000000e+00   0.000000000000e+00   0.000000000000e+00   0.000000000000e+00   0.000000000000e+00   0.000000000000e+00 
  0.000000000000e+00   0.000000000000e+00   0.000000000000e+00   0.000000000000e+00   0.000000000000e+00   0.000000000000e+00   0.000000000000e+00   0.000000000000e+00   0.000000000000e+00 
  0.000000000000e+00   0.000000000000e+00   0.000000000000e+00   0.000000000000e+00   0.000000000000e+00   0.000000000000e+00   0.000000000000e+00   0.000000000000e+00   0.000000000000e+00 
  0.000000000000e+00   0.000000000000e+00   0.000000000000e+00   0.000000000000e+00   0.000000000000e+00   0.000000000000e+00   0.000000000000e+00   0.000000000000e+00   0.000000000000e+00 
  0.000000000000e+00   0.000000000000e+00   0.000000000000e+00   0.000000000000e+00   0.000000000000e+00   0.000000000000e+00   0.000000000000e+00   0.000000000000e+00   0.000000000000e+00 
  0.000000000000e+00   0.000000000000e+00   0.000000000000e+00   0.000000000000e+00   0.000000000000e+00   0.000000000000e+00   0.000000000000e+00   0.000000000000e+00   0.000000000000e+00 
  0.000000000000e+00   0.000000000000e+00   0.000000000000e+00   0.000000000000e+00   0.000000000000e+00   0.000000000000e+00   0.000000000000e+00   0.000000000000e+00   0.000000000000e+00 
  0.000000000000e+00   0.000000000000e+00   0.000000000000e+00   0.000000000000e+00   0.000000000000e+00   0.000000000000e+00   0.000000000000e+00   0.000000000000e+00   0.000000000000e+00 
  0.000000000000e+00   0.000000000000e+00   0.000000000000e+00   0.000000000000e+00   0.000000000000e+00   0.000000000000e+00   0.000000000000e+00   0.000000000000e+00   0.000000000000e+00 
  0.000000000000e+00   0.000000000000e+00   0.000000000000e+00   0.000000000000e+00   0.000000000000e+00   0.000000000000e+00   0.000000000000e+00   0.000000000000e+00   0.000000000000e+00 
  0.000000000000e+00   0.000000000000e+00   0.000000000000e+00   0.000000000000e+00   0.000000000000e+00   0.000000000000e+00   0.000000000000e+00   0.000000000000e+00   0.000000000000e+00 
  0.000000000000e+00   0.000000000000e+00   0.000000000000e+00   0.000000000000e+00   0.000000000000e+00   0.000000000000e+00   0.000000000000e+00   0.000000000000e+00   0.000000000000e+00 
  0.000000000000e+00   0.000000000000e+00   0.000000000000e+00   0.000000000000e+00   0.000000000000e+00   0.000000000000e+00   0.000000000000e+00   0.000000000000e+00   0.000000000000e+00 
  0.000000000000e+00   0.000000000000e+00   0.000000000000e+00   0.000000000000e+00   0.000000000000e+00   0.000000000000e+00   0.000000000000e+00   0.000000000000e+00   0.000000000000e+00 
  0.000000000000e+00   0.000000000000e+00   0.000000000000e+00   0.000000000000e+00   0.000000000000e+00   0.000000000000e+00   0.000000000000e+00   0.000000000000e+00   0.000000000000e+00 
  0.000000000000e+00   0.000000000000e+00   0.000000000000e+00   0.000000000000e+00   0.000000000000e+00   0.000000000000e+00   0.000000000000e+00   0.000000000000e+00   0.000000000000e+00 
  0.000000000000e+00   0.000000000000e+00   0.000000000000e+00   0.000000000000e+00   0.000000000000e+00   0.000000000000e+00   0.000000000000e+00   0.000000000000e+00   0.000000000000e+00 
  0.000000000000e+00   0.000000000000e+00   0.000000000000e+00   0.000000000000e+00   0.000000000000e+00   0.000000000000e+00   0.000000000000e+00   0.000000000000e+00   0.000000000000e+00 
  0.000000000000e+00   0.000000000000e+00   0.000000000000e+00   0.000000000000e+00   0.000000000000e+00   0.000000000000e+00   0.000000000000e+00   0.000000000000e+00   0.000000000000e+00 
  0.000000000000e+00   0.000000000000e+00   0.000000000000e+00   0.000000000000e+00   0.000000000000e+00   0.000000000000e+00   0.000000000000e+00   0.000000000000e+00   0.000000000000e+00 
  0.000000000000e+00   0.000000000000e+00   0.000000000000e+00   0.000000000000e+00   0.000000000000e+00   0.000000000000e+00   0.000000000000e+00   0.000000000000e+00   0.000000000000e+00 
  0.000000000000e+00   0.000000000000e+00   0.000000000000e+00   0.000000000000e+00   0.000000000000e+00   0.000000000000e+00   0.000000000000e+00   0.000000000000e+00   0.000000000000e+00 
  0.000000000000e+00   0.000000000000e+00   0.000000000000e+00   0.000000000000e+00   0.000000000000e+00   0.000000000000e+00   0.000000000000e+00   0.000000000000e+00   0.000000000000e+00 
  0.000000000000e+00   0.000000000000e+00   0.000000000000e+00   0.000000000000e+00   0.000000000000e+00   0.000000000000e+00   0.000000000000e+00   0.000000000000e+00   0.000000000000e+00 
  0.000000000000e+00   0.000000000000e+00   0.000000000000e+00   0.000000000000e+00   0.000000000000e+00   0.000000000000e+00   0.000000000000e+00   0.000000000000e+00   0.000000000000e+00 
  0.000000000000e+00   0.000000000000e+00   0.000000000000e+00   0.000000000000e+00   0.000000000000e+00   0.000000000000e+00   0.000000000000e+00   0.000000000000e+00   0.000000000000e+00 
  0.000000000000e+00   0.000000000000e+00   0.000000000000e+00   0.000000000000e+00   0.000000000000e+00   0.000000000000e+00   0.000000000000e+00   0.000000000000e+00   0.000000000000e+00 
  0.000000000000e+00   0.000000000000e+00   0.000000000000e+00   0.000000000000e+00   0.000000000000e+00   0.000000000000e+00   0.000000000000e+00   0.000000000000e+00   0.000000000000e+00 
  0.000000000000e+00   0.000000000000e+00   0.000000000000e+00   0.000000000000e+00   0.000000000000e+00   0.000000000000e+00   0.000000000000e+00   0.000000000000e+00   0.000000000000e+00 
  0.000000000000e+00   0.000000000000e+00   0.000000000000e+00   0.000000000000e+00   0.000000000000e+00   0.000000000000e+00   0.000000000000e+00   0.000000000000e+00   0.000000000000e+00 
  0.000000000000e+00   0.000000000000e+00   0.000000000000e+00   0.000000000000e+00   0.000000000000e+00   0.000000000000e+00   0.000000000000e+00   0.000000000000e+00   0.000000000000e+00 
  0.000000000000e+00   0.000000000000e+00   0.000000000000e+00   0.000000000000e+00   0.000000000000e+00   0.000000000000e+00   0.000000000000e+00   0.000000000000e+00   0.000000000000e+00 
  0.000000000000e+00   0.000000000000e+00   0.000000000000e+00   0.000000000000e+00   0.000000000000e+00   0.000000000000e+00   0.000000000000e+00   0.000000000000e+00   0.000000000000e+00 
  0.000000000000e+00   0.000000000000e+00   0.000000000000e+00   0.000000000000e+00   0.000000000000e+00   0.000000000000e+00   0.000000000000e+00   0.000000000000e+00   0.000000000000e+00 
  0.000000000000e+00   0.000000000000e+00   0.000000000000e+00   0.000000000000e+00   0.000000000000e+00   0.000000000000e+00   0.000000000000e+00   0.000000000000e+00   0.000000000000e+00 
  0.000000000000e+00   0.000000000000e+00   0.000000000000e+00   0.000000000000e+00   0.000000000000e+00   0.000000000000e+00   0.000000000000e+00   0.000000000000e+00   0.000000000000e+00 
  0.000000000000e+00   0.000000000000e+00   0.000000000000e+00   0.000000000000e+00   0.000000000000e+00   0.000000000000e+00   0.000000000000e+00   0.000000000000e+00   0.000000000000e+00 
  0.000000000000e+00   0.000000000000e+00   0.000000000000e+00   0.000000000000e+00   0.000000000000e+00   0.000000000000e+00   0.000000000000e+00   0.000000000000e+00   0.000000000000e+00 
  0.000000000000e+00   0.000000000000e+00   0.000000000000e+00   0.000000000000e+00   0.000000000000e+00   0.000000000000e+00   0.000000000000e+00   0.000000000000e+00   0.000000000000e+00 
  0.000000000000e+00   0.000000000000e+00   0.000000000000e+00   0.000000000000e+00   0.000000000000e+00   0.000000000000e+00   0.000000000000e+00   8.702079772949e+00   8.699911117554e+00 
  8.695679664612e+00   8.689586639404e+00   8.681918144226e+00   8.673031806946e+00   8.663333892822e+00   8.653250694275e+00   8.643203735352e+00   8.633575439453e+00   8.624688148499e+00 
  8.616781234741e+00   8.610009193420e+00   8.604441642761e+00   8.600078582764e+00   8.596862792969e+00   8.594934463501e+00   8.592494010925e+00   0.000000000000e+00   0.000000000000e+00 
  8.696794509888e+00   8.694456100464e+00   8.689894676208e+00   8.683327674866e+00   8.675067901611e+00   8.665504455566e+00   8.655084609985e+00   8.644276618958e+00   8.633543968201e+00 
  8.623306274414e+00   8.613911628723e+00   8.605617523193e+00   8.598572731018e+00   8.592836380005e+00   8.588383674622e+00   8.585131645203e+00   8.583200454712e+00   8.580673217773e+00 
  0.000000000000e+00   0.000000000000e+00   8.682824134827e+00   8.680131912231e+00   8.674879074097e+00   8.667320251465e+00   8.657819747925e+00   8.646837234497e+00   8.634902954102e+00 
  8.622575759888e+00   8.610407829285e+00   8.598900794983e+00   8.588461875916e+00   8.579377174377e+00   8.571793556213e+00   8.565736770630e+00   8.561128616333e+00   8.557827949524e+00 
  8.555909156799e+00   8.553221702576e+00   0.000000000000e+00   0.000000000000e+00   8.666916847229e+00   8.663655281067e+00   8.657290458679e+00   8.648129463196e+00   8.636624336243e+00 
  8.623346328735e+00   8.608960151672e+00   8.594173431396e+00   8.579692840576e+00   8.566152572632e+00   8.554062843323e+00   8.543758392334e+00   8.535380363464e+00   8.528893470764e+00 
  8.524118423462e+00   8.520809173584e+00   8.518955230713e+00   8.516050338745e+00   0.000000000000e+00   0.000000000000e+00   8.649889945984e+00   8.645777702332e+00   8.637748718262e+00 
  8.626191139221e+00   8.611680984497e+00   8.594957351685e+00   8.576887130737e+00   8.558408737183e+00   8.540462493896e+00   8.523900985718e+00   8.509397506714e+00   8.497364997864e+00 
  8.487927436829e+00   8.480940818787e+00   8.476057052612e+00   8.472853660583e+00   8.471170425415e+00   8.467998504639e+00   0.000000000000e+00   0.000000000000e+00   8.634393692017e+00 
  8.629075050354e+00   8.618682861328e+00   8.603714942932e+00   8.584918022156e+00   8.563266754150e+00   8.539916038513e+00   8.516138076782e+00   8.493228912354e+00   8.472378730774e+00 
  8.454519271851e+00   8.440188407898e+00   8.429472923279e+00   8.422044754028e+00   8.417269706726e+00   8.414433479309e+00   8.413130760193e+00   8.409653663635e+00   0.000000000000e+00 
  0.000000000000e+00   8.639666557312e+00   8.632645606995e+00   8.618919372559e+00   8.599135398865e+00   8.574288368225e+00   8.545670509338e+00   8.514835357666e+00   8.483530998230e+00 
  8.453578948975e+00   8.426697731018e+00   8.404231071472e+00   8.386906623840e+00   8.374736785889e+00   8.367084503174e+00   8.362840652466e+00   8.360827445984e+00   8.360247612000e+00 
  8.356437683105e+00   0.000000000000e+00   0.000000000000e+00   8.652384757996e+00   8.642980575562e+00   8.624562263489e+00   8.598021507263e+00   8.564725875854e+00   8.526396751404e+00 
  8.485118865967e+00   8.443295478821e+00   8.403520584106e+00   8.368324279785e+00   8.339684486389e+00   8.318608283997e+00   8.304962158203e+00   8.297587394714e+00   8.294616699219e+00 
  8.294152259827e+00   8.294820785522e+00   8.290711402893e+00   0.000000000000e+00   0.000000000000e+00   8.634789466858e+00   8.622247695923e+00   8.597593307495e+00   8.562078475952e+00 
  8.517621994019e+00   8.466487884521e+00   8.411429405212e+00   8.355704307556e+00   8.302980422974e+00   8.256997108459e+00   8.220694541931e+00   8.195478439331e+00   8.180931091309e+00 
  8.175043106079e+00   8.174760818481e+00   8.177099227905e+00   8.179879188538e+00   8.175730705261e+00   0.000000000000e+00   0.000000000000e+00   8.744024276733e+00   8.727970123291e+00 
  8.696284294128e+00   8.650391578674e+00   8.592638969421e+00   8.525601387024e+00   8.452652931213e+00   8.378181457520e+00   8.307563781738e+00   8.246675491333e+00   8.200195312500e+00 
  8.170228958130e+00   8.155872344971e+00   8.153694152832e+00   8.158735275269e+00   8.166250228882e+00   8.172673225403e+00   8.168921470642e+00   0.000000000000e+00   0.000000000000e+00 
  9.126055717468e+00   9.104351043701e+00   9.061476707458e+00   8.999355316162e+00   8.921040534973e+00   8.829282760620e+00   8.728017807007e+00   8.623341560364e+00   8.523516654968e+00 
  8.438049316406e+00   8.374558448792e+00   8.336281776428e+00   8.321318626404e+00   8.323763847351e+00   8.335721969604e+00   8.349987030029e+00   8.361080169678e+00   8.358027458191e+00 
  0.000000000000e+00   0.000000000000e+00   9.599280357361e+00   9.568433761597e+00   9.508066177368e+00   9.421948432922e+00   9.314752578735e+00   9.188840866089e+00   9.047589302063e+00 
  8.899265289307e+00   8.756869316101e+00   8.635717391968e+00   8.548266410828e+00   8.499485015869e+00   8.485306739807e+00   8.495353698730e+00   8.517317771912e+00   8.541120529175e+00 
  8.558959960938e+00   8.556992530823e+00   0.000000000000e+00   0.000000000000e+00   1.003951740265e+01   9.998016357422e+00   9.917429924011e+00   9.804013252258e+00   9.664690017700e+00 
  9.500213623047e+00   9.310867309570e+00   9.107930183411e+00   8.911559104919e+00   8.745204925537e+00   8.629005432129e+00   8.570686340332e+00   8.562239646912e+00   8.585975646973e+00 
  8.623465538025e+00   8.661646842957e+00   8.690073966980e+00   8.690454483032e+00   0.000000000000e+00   0.000000000000e+00   1.086674308777e+01   1.081396865845e+01   1.071112632751e+01 
  1.056637382507e+01   1.038867855072e+01   1.017570781708e+01   9.922863006592e+00   9.645235061646e+00   9.372539520264e+00   9.140889167786e+00   8.983839988708e+00   8.913955688477e+00 
  8.915994644165e+00   8.959871292114e+00   9.018811225891e+00   9.076227188110e+00   9.118259429932e+00   9.121454238892e+00   0.000000000000e+00   0.000000000000e+00   1.185327053070e+01 
  1.178652095795e+01   1.165592575073e+01   1.147191619873e+01   1.124550533295e+01   1.097039604187e+01   1.063549613953e+01   1.025781536102e+01   9.876747131348e+00   9.546790122986e+00 
  9.326588630676e+00   9.237327575684e+00   9.249848365784e+00   9.312934875488e+00   9.391982078552e+00   9.468002319336e+00   9.522314071655e+00   9.523409843445e+00   0.000000000000e+00 
  0.000000000000e+00   1.280050754547e+01   1.272488689423e+01   1.257539176941e+01   1.236091613770e+01   1.209091472626e+01   1.175512790680e+01   1.133798408508e+01   1.085426330566e+01 
  1.034768104553e+01   9.893388748169e+00   9.594292640686e+00   9.485769271851e+00   9.512213706970e+00   9.585822105408e+00   9.677211761475e+00   9.768393516541e+00   9.834980010986e+00 
  9.830154418945e+00   0.000000000000e+00   0.000000000000e+00   1.368964195251e+01   1.361429691315e+01   1.346695613861e+01   1.323680686951e+01   1.293011665344e+01   1.253713893890e+01 
  1.204708290100e+01   1.147231864929e+01   1.085282993317e+01   1.026898574829e+01   9.886532783508e+00   9.754034996033e+00   9.779093742371e+00   9.820779800415e+00   9.897187232971e+00 
  9.987508773804e+00   1.006049251556e+01   1.002620983124e+01   0.000000000000e+00   0.000000000000e+00   1.459948539734e+01   1.455282497406e+01   1.441366100311e+01   1.418553161621e+01 
  1.386452007294e+01   1.344847297668e+01   1.292587661743e+01   1.229722785950e+01   1.157352542877e+01   1.086103248596e+01   1.039302539825e+01   1.028112411499e+01   1.038107204437e+01 
  1.037024497986e+01   1.039905452728e+01   1.042881870270e+01   1.047254276276e+01   1.044698238373e+01   0.000000000000e+00   0.000000000000e+00   0.000000000000e+00   0.000000000000e+00 
  0.000000000000e+00   0.000000000000e+00   0.000000000000e+00   0.000000000000e+00   0.000000000000e+00   0.000000000000e+00   0.000000000000e+00   0.000000000000e+00   0.000000000000e+00 
  0.000000000000e+00   0.000000000000e+00   0.000000000000e+00   0.000000000000e+00   0.000000000000e+00   0.000000000000e+00   0.000000000000e+00   0.000000000000e+00   0.000000000000e+00 
  0.000000000000e+00   0.000000000000e+00   0.000000000000e+00   0.000000000000e+00   0.000000000000e+00   0.000000000000e+00   0.000000000000e+00   0.000000000000e+00   0.000000000000e+00 
  0.000000000000e+00   0.000000000000e+00   0.000000000000e+00   0.000000000000e+00   0.000000000000e+00   0.000000000000e+00   0.000000000000e+00   0.000000000000e+00   0.000000000000e+00 
  0.000000000000e+00   0.000000000000e+00   7.666781425476e+00   7.664693832397e+00   7.660621643066e+00   7.654758930206e+00   7.647382259369e+00   7.638835430145e+00   7.629508495331e+00 
  7.619814872742e+00   7.610158443451e+00   7.600907802582e+00   7.592370986938e+00   7.584779739380e+00   7.578280925751e+00   7.572941303253e+00   7.568759441376e+00   7.565679073334e+00 
  7.563833236694e+00   7.561486244202e+00   0.000000000000e+00   0.000000000000e+00   7.658259391785e+00   7.656009674072e+00   7.651621818542e+00   7.645305633545e+00   7.637362957001e+00 
  7.628169536591e+00   7.618154048920e+00   7.607769012451e+00   7.597460269928e+00   7.587630271912e+00   7.578614234924e+00   7.570657253265e+00   7.563905239105e+00   7.558410644531e+00 
  7.554148197174e+00   7.551036834717e+00   7.549191474915e+00   7.546761989594e+00   0.000000000000e+00   0.000000000000e+00   7.642961025238e+00   7.640374660492e+00   7.635329246521e+00 
  7.628068923950e+00   7.618946075439e+00   7.608403205872e+00   7.596949100494e+00   7.585122108459e+00   7.573453426361e+00   7.562423706055e+00   7.552424430847e+00   7.543729782104e+00 
  7.536480903625e+00   7.530698299408e+00   7.526303291321e+00   7.523157596588e+00   7.521331310272e+00   7.518752574921e+00   0.000000000000e+00   0.000000000000e+00   7.625092983246e+00 
  7.621968746185e+00   7.615870952606e+00   7.607094764709e+00   7.596072196960e+00   7.583353519440e+00   7.569576740265e+00   7.555423259735e+00   7.541567325592e+00   7.528620719910e+00 
  7.517074108124e+00   7.507248401642e+00   7.499276161194e+00   7.493118286133e+00   7.488596916199e+00   7.485468864441e+00   7.483719825745e+00   7.480940818787e+00   0.000000000000e+00 
  0.000000000000e+00   7.601605415344e+00   7.597685337067e+00   7.590028285980e+00   7.579002380371e+00   7.565155982971e+00   7.549197673798e+00   7.531956672668e+00   7.514331340790e+00 
  7.497220039368e+00   7.481444358826e+00   7.467652320862e+00   7.456243038177e+00   7.447330474854e+00   7.440769672394e+00   7.436211109161e+00   7.433233261108e+00   7.431675910950e+00 
  7.428653717041e+00   0.000000000000e+00   0.000000000000e+00   7.574429988861e+00   7.569376945496e+00   7.559492111206e+00   7.545244693756e+00   7.527351379395e+00   7.506742477417e+00 
  7.484526157379e+00   7.461916446686e+00   7.440148353577e+00   7.420369625092e+00   7.403480529785e+00   7.389997959137e+00   7.380000591278e+00   7.373159408569e+00   7.368830680847e+00 
  7.366292476654e+00   7.365140914917e+00   7.361866474152e+00   0.000000000000e+00   0.000000000000e+00   7.554251194000e+00   7.547631740570e+00   7.534643650055e+00   7.515892028809e+00 
  7.492332935333e+00   7.465199947357e+00   7.435989856720e+00   7.406363487244e+00   7.378051757812e+00   7.352713584900e+00   7.331650257111e+00   7.315565586090e+00   7.304468631744e+00 
  7.297716617584e+00   7.294170856476e+00   7.292604923248e+00   7.292219638824e+00   7.288712501526e+00   0.000000000000e+00   0.000000000000e+00   7.543497085571e+00   7.534773826599e+00 
  7.517563343048e+00   7.492644786835e+00   7.461326599121e+00   7.425233364105e+00   7.386379718781e+00   7.347027778625e+00   7.309608459473e+00   7.276605129242e+00   7.249985218048e+00 
  7.230745792389e+00   7.218759536743e+00   7.212852478027e+00   7.211061477661e+00   7.211336135864e+00   7.212262630463e+00   7.208565711975e+00   0.000000000000e+00   0.000000000000e+00 
  7.566701412201e+00   7.555197238922e+00   7.532286167145e+00   7.498973846436e+00   7.457118511200e+00   7.408759117126e+00   7.356563568115e+00   7.303588867188e+00   7.253288269043e+00 
  7.209524631500e+00   7.175379276276e+00   7.152313232422e+00   7.139940261841e+00   7.136192321777e+00   7.137771129608e+00   7.141274929047e+00   7.144332408905e+00   7.140548229218e+00 
  0.000000000000e+00   0.000000000000e+00   7.668489456177e+00   7.653424739838e+00   7.623014926910e+00   7.578605175018e+00   7.522957324982e+00   7.458327770233e+00   7.388057708740e+00 
  7.316191673279e+00   7.247663021088e+00   7.188742160797e+00   7.144413948059e+00   7.116863250732e+00   7.105171203613e+00   7.105750560760e+00   7.113197803497e+00   7.121980190277e+00 
  7.128313541412e+00   7.124717235565e+00   0.000000000000e+00   0.000000000000e+00   7.923570632935e+00   7.903316020966e+00   7.861930370331e+00   7.801562786102e+00   7.726674556732e+00 
  7.639142513275e+00   7.542589664459e+00   7.442473888397e+00   7.346217632294e+00   7.264239788055e+00   7.204694747925e+00   7.170896053314e+00   7.160788059235e+00   7.168104171753e+00 
  7.184258460999e+00   7.200653076172e+00   7.211553573608e+00   7.208589076996e+00   0.000000000000e+00   0.000000000000e+00   8.324018478394e+00   8.295739173889e+00   8.238191604614e+00 
  8.155529022217e+00   8.054997444153e+00   7.936803340912e+00   7.802837371826e+00   7.660836219788e+00   7.523158550262e+00   7.406892299652e+00   7.325536727905e+00   7.284327030182e+00 
  7.278575420380e+00   7.296836853027e+00   7.325670719147e+00   7.352995872498e+00   7.370781898499e+00   7.369725227356e+00   0.000000000000e+00   0.000000000000e+00   8.892165184021e+00 
  8.851581573486e+00   8.771261215210e+00   8.659439086914e+00   8.527154922485e+00   8.371453285217e+00   8.186079025269e+00   7.983372211456e+00   7.786083221436e+00   7.620337486267e+00 
  7.509270668030e+00   7.461688995361e+00   7.467325687408e+00   7.504433631897e+00   7.551722526550e+00   7.595118045807e+00   7.624186992645e+00   7.627326965332e+00   0.000000000000e+00 
  0.000000000000e+00   9.728023529053e+00   9.672083854675e+00   9.561167716980e+00   9.410056114197e+00   9.238576889038e+00   9.036760330200e+00   8.780951499939e+00   8.490933418274e+00 
  8.204015731812e+00   7.961469173431e+00   7.805816650391e+00   7.753355026245e+00   7.781969547272e+00   7.849929332733e+00   7.924520492554e+00   7.990615844727e+00   8.035288810730e+00 
  8.042389869690e+00   0.000000000000e+00   0.000000000000e+00   1.074309825897e+01   1.067161941528e+01   1.052680110931e+01   1.033017253876e+01   1.011233997345e+01   9.853409767151e+00 
  9.506851196289e+00   9.101290702820e+00   8.687804222107e+00   8.327241897583e+00   8.102748870850e+00   8.046392440796e+00   8.112582206726e+00   8.222603797913e+00   8.332493782043e+00 
  8.428618431091e+00   8.492933273315e+00   8.498387336731e+00   0.000000000000e+00   0.000000000000e+00   1.177119350433e+01   1.169343948364e+01   1.153184795380e+01   1.130471515656e+01 
  1.104023456573e+01   1.071365356445e+01   1.027426338196e+01   9.743480682373e+00   9.170368194580e+00   8.636565208435e+00   8.313390731812e+00   8.257085800171e+00   8.371471405029e+00 
  8.509682655334e+00   8.648261070251e+00   8.778144836426e+00   8.870223045349e+00   8.863719940186e+00   0.000000000000e+00   0.000000000000e+00   1.278811359406e+01   1.272446346283e+01 
  1.258012104034e+01   1.234364509583e+01   1.203089523315e+01   1.162585830688e+01   1.108600425720e+01   1.042186546326e+01   9.678366661072e+00   8.933560371399e+00   8.494235992432e+00 
  8.454504013062e+00   8.626176834106e+00   8.699046134949e+00   8.820639610291e+00   8.958029747009e+00   9.089234352112e+00   9.056146621704e+00   0.000000000000e+00   0.000000000000e+00 
  1.341518402100e+01   1.337036800385e+01   1.326401138306e+01   1.304559326172e+01   1.274061298370e+01   1.233452415466e+01   1.178814888000e+01   1.109627342224e+01   1.021418857574e+01 
  9.158267974854e+00   8.569494247437e+00   8.642993927002e+00   9.104362487793e+00   8.891972541809e+00   8.925025939941e+00   8.951914787292e+00   9.036339759827e+00   8.928508758545e+00 
  0.000000000000e+00   0.000000000000e+00   0.000000000000e+00   0.000000000000e+00   0.000000000000e+00   0.000000000000e+00   0.000000000000e+00   0.000000000000e+00   0.000000000000e+00 
  0.000000000000e+00   0.000000000000e+00   0.000000000000e+00   0.000000000000e+00   0.000000000000e+00   0.000000000000e+00   0.000000000000e+00   0.000000000000e+00   0.000000000000e+00 
  0.000000000000e+00   0.000000000000e+00   0.000000000000e+00   0.000000000000e+00   0.000000000000e+00   0.000000000000e+00   0.000000000000e+00   0.000000000000e+00   0.000000000000e+00 
  0.000000000000e+00   0.000000000000e+00   0.000000000000e+00   0.000000000000e+00   0.000000000000e+00   0.000000000000e+00   0.000000000000e+00   0.000000000000e+00   0.000000000000e+00 
  0.000000000000e+00   0.000000000000e+00   0.000000000000e+00   0.000000000000e+00   0.000000000000e+00   0.000000000000e+00   6.617362022400e+00   6.615427970886e+00   6.611659049988e+00 
  6.606236934662e+00   6.599417686462e+00   6.591518402100e+00   6.582901477814e+00   6.573949337006e+00   6.565036296844e+00   6.556502342224e+00   6.548629760742e+00   6.541634082794e+00 
  6.535652637482e+00   6.530745983124e+00   6.526908397675e+00   6.524082660675e+00   6.522391319275e+00   6.520220279694e+00   0.000000000000e+00   0.000000000000e+00   6.609369754791e+00 
  6.607290267944e+00   6.603234291077e+00   6.597398281097e+00   6.590061664581e+00   6.581572532654e+00   6.572327136993e+00   6.562746047974e+00   6.553240776062e+00   6.544182777405e+00 
  6.535879611969e+00   6.528560161591e+00   6.522357940674e+00   6.517319679260e+00   6.513417720795e+00   6.510570526123e+00   6.508883953094e+00   6.506644248962e+00   0.000000000000e+00 
  0.000000000000e+00   6.583656311035e+00   6.581282615662e+00   6.576649188995e+00   6.569979190826e+00   6.561595916748e+00   6.551908016205e+00   6.541384220123e+00   6.530523777008e+00 
  6.519816875458e+00   6.509706974030e+00   6.500554561615e+00   6.492611408234e+00   6.486004352570e+00   6.480747699738e+00   6.476762294769e+00   6.473914146423e+00   6.472265243530e+00 
  6.469904899597e+00   0.000000000000e+00   0.000000000000e+00   6.538467407227e+00   6.535629749298e+00   6.530085086823e+00   6.522095203400e+00   6.512052059174e+00   6.500460624695e+00 
  6.487907886505e+00   6.475019454956e+00   6.462415218353e+00   6.450658321381e+00   6.440200328827e+00   6.431334018707e+00   6.424175262451e+00   6.418678283691e+00   6.414667129517e+00 
  6.411905765533e+00   6.410369873047e+00   6.407849311829e+00   0.000000000000e+00   0.000000000000e+00   6.493390560150e+00   6.489857673645e+00   6.482942104340e+00   6.472969055176e+00 
  6.460436820984e+00   6.445991039276e+00   6.430394649506e+00   6.414467811584e+00   6.399028778076e+00   6.384830474854e+00   6.372471809387e+00   6.362313747406e+00   6.354453086853e+00 
  6.348742961884e+00   6.344836235046e+00   6.342315196991e+00   6.341008186340e+00   6.338307380676e+00   0.000000000000e+00   0.000000000000e+00   6.447351932526e+00   6.442840576172e+00 
  6.433979034424e+00   6.421178340912e+00   6.405084133148e+00   6.386535644531e+00   6.366553783417e+00   6.346243381500e+00   6.326720714569e+00   6.309045791626e+00   6.294055461884e+00 
  6.282220840454e+00   6.273609161377e+00   6.267897605896e+00   6.264433383942e+00   6.262475013733e+00   6.261602878571e+00   6.258736133575e+00   0.000000000000e+00   0.000000000000e+00 