# vtk DataFile Version 2.0
Written using VisIt writer
ASCII
DATASET RECTILINEAR_GRID
DIMENSIONS 20 20 20
X_COORDINATES 20 float
  0.000000000000e+00   1.000000000000e+00   2.000000000000e+00   3.000000000000e+00   4.000000000000e+00   5.000000000000e+00   6.000000000000e+00   7.000000000000e+00   8.000000000000e+00 
  9.000000000000e+00   1.000000000000e+01   1.100000000000e+01   1.200000000000e+01   1.300000000000e+01   1.400000000000e+01   1.500000000000e+01   1.600000000000e+01   1.700000000000e+01 
  1.800000000000e+01   1.900000000000e+01 
Y_COORDINATES 20 float
  0.000000000000e+00   1.000000000000e+00   2.000000000000e+00   3.000000000000e+00   4.000000000000e+00   5.000000000000e+00   6.000000000000e+00   7.000000000000e+00   8.000000000000e+00 
  9.000000000000e+00   1.000000000000e+01   1.100000000000e+01   1.200000000000e+01   1.300000000000e+01   1.400000000000e+01   1.500000000000e+01   1.600000000000e+01   1.700000000000e+01 
  1.800000000000e+01   1.900000000000e+01 
Z_COORDINATES 20 float
  0.000000000000e+00   1.000000000000e+00   2.000000000000e+00   3.000000000000e+00   4.000000000000e+00   5.000000000000e+00   6.000000000000e+00   7.000000000000e+00   8.000000000000e+00 
  9.000000000000e+00   1.000000000000e+01   1.100000000000e+01   1.200000000000e+01   1.300000000000e+01   1.400000000000e+01   1.500000000000e+01   1.600000000000e+01   1.700000000000e+01 
  1.800000000000e+01   1.900000000000e+01 
CELL_DATA 6859
POINT_DATA 8000
SCALARS pressure float
LOOKUP_TABLE default
  0.000000000000e+00   0.000000000000e+00   0.000000000000e+00   0.000000000000e+00   0.000000000000e+00   0.000000000000e+00   0.000000000000e+00   0.000000000000e+00   0.000000000000e+00 
  0.000000000000e+00   0.000000000000e+00   0.000000000000e+00   0.000000000000e+00   0.000000000000e+00   0.000000000000e+00   0.000000000000e+00   0.000000000000e+00   0.000000000000e+00 
  0.000000000000e+00   0.000000000000e+00   0.000000000000e+00   0.000000000000e+00   0.000000000000e+00   0.000000000000e+00   0.000000000000e+00   0.000000000000e+00   0.000000000000e+00 
  0.000000000000e+00   0.000000000000e+00   0.000000000000e+00   0.000000000000e+00   0.000000000000e+00   0.000000000000e+00   0.000000000000e+00   0.000000000000e+00   0.000000000000e+00 
  0.000000000000e+00   0.000000000000e+00   0.000000000000e+00   0.000000000000e+00   0.000000000000e+00   0.000000000000e+00   0.000000000000e+00   0.000000000000e+00   0.000000000000e+00 
  0.000000000000e+00   0.000000000000e+00   0.000000000000e+00   0.000000000000e+00   0.000000000000e+00   0.000000000000e+00   0.000000000000e+00   0.000000000000e+00   0.000000000000e+00 
  0.000000000000e+00   0.000000000000e+00   0.000000000000e+00   0.000000000000e+00   0.000000000000e+00   0.000000000000e+00   0.000000000000e+00   0.000000000000e+00   0.000000000000e+00 
  0.000000000000e+00   0.000000000000e+00   0.000000000000e+00   0.000000000000e+00   0.000000000000e+00   0.000000000000e+00   0.000000000000e+00   0.000000000000e+00   0.000000000000e+00 
  0.000000000000e+00   0.000000000000e+00   0.000000000000e+00   0.000000000000e+00   0.000000000000e+00   0.000000000000e+00   0.000000000000e+00   0.000000000000e+00   0.000000000000e+00 
  0.000000000000e+00   0.000000000000e+00   0.000000000000e+00   0.000000000000e+00   0.000000000000e+00   0.000000000000e+00   0.000000000000e+00   0.000000000000e+00   0.000000000000e+00 
  0.000000000000e+00   0.000000000000e+00   0.000000000000e+00   0.000000000000e+00   0.000000000000e+00   0.000000000000e+00   0.000000000000e+00   0.000000000000e+00   0.000000000000e+00 
  0.000000000000e+00   0.000000000000e+00   0.000000000000e+00   0.000000000000e+00   0.000000000000e+00   0.000000000000e+00   0.000000000000e+00   0.000000000000e+00   0.000000000000e+00 
  0.000000000000e+00   0.000000000000e+00   0.000000000000e+00   0.000000000000e+00   0.000000000000e+00   0.000000000000e+00   0.000000000000e+00   0.000000000000e+00   0.000000000000e+00 
  0.000000000000e+00   0.000000000000e+00   0.000000000000e+00   0.000000000000e+00   0.000000000000e+00   0.000000000000e+00   0.000000000000e+00   0.000000000000e+00   0.000000000000e+00 
  0.000000000000e+00   0.000000000000e+00   0.000000000000e+00   0.000000000000e+00   0.000000000000e+00   0.000000000000e+00   0.000000000000e+00   0.000000000000e+00   0.000000000000e+00 
  0.000000000000e+00   0.000000000000e+00   0.000000000000e+00   0.000000000000e+00   0.000000000000e+00   0.000000000000e+00   0.000000000000e+00   0.000000000000e+00   0.000000000000e+00 
  0.000000000000e+00   0.000000000000e+00   0.000000000000e+00   0.000000000000e+00   0.000000000000e+00   0.000000000000e+00   0.000000000000e+00   0.000000000000e+00   0.000000000000e+00 
  0.000000000000e+00   0.000000000000e+00   0.000000000000e+00   0.000000000000e+00   0.000000000000e+00   0.000000000000e+00   0.000000000000e+00   0.000000000000e+00   0.000000000000e+00 
  0.000000000000e+00   0.000000000000e+00   0.000000000000e+00   0.000000000000e+00   0.000000000000e+00   0.000000000000e+00   0.000000000000e+00   0.000000000000e+00   0.000000000000e+00 
  0.000000000000e+00   0.000000000000e+00   0.000000000000e+00   0.000000000000e+00   0.000000000000e+00   0.000000000000e+00   0.000000000000e+00   0.000000000000e+00   0.000000000000e+00 
  0.000000000000e+00   0.000000000000e+00   0.000000000000e+00   0.000000000000e+00   0.000000000000e+00   0.000000000000e+00   0.000000000000e+00   0.000000000000e+00   0.000000000000e+00 
  0.000000000000e+00   0.000000000000e+00   0.000000000000e+00   0.000000000000e+00   0.000000000000e+00   0.000000000000e+00   0.000000000000e+00   0.000000000000e+00   0.000000000000e+00 
  0.000000000000e+00   0.000000000000e+00   0.000000000000e+00   0.000000000000e+00   0.000000000000e+00   0.000000000000e+00   0.000000000000e+00   0.000000000000e+00   0.000000000000e+00 
  0.000000000000e+00   0.000000000000e+00   0.000000000000e+00   0.000000000000e+00   0.000000000000e+00   0.000000000000e+00   0.000000000000e+00   0.000000000000e+00   0.000000000000e+00 
  0.000000000000e+00   0.000000000000e+00   0.000000000000e+00   0.000000000000e+00   0.000000000000e+00   0.000000000000e+00   0.000000000000e+00   0.000000000000e+00   0.000000000000e+00 
  0.000000000000e+00   0.000000000000e+00   0.000000000000e+00   0.000000000000e+00   0.000000000000e+00   0.000000000000e+00   0.000000000000e+00   0.000000000000e+00   0.000000000000e+00 
  0.000000000000e+00   0.000000000000e+00   0.000000000000e+00   0.000000000000e+00   0.000000000000e+00   0.000000000000e+00   0.000000000000e+00   0.000000000000e+00   0.000000000000e+00 
  0.000000000000e+00   0.000000000000e+00   0.000000000000e+00   0.000000000000e+00   0.000000000000e+00   0.000000000000e+00   0.000000000000e+00   0.000000000000e+00   0.000000000000e+00 
  0.000000000000e+00   0.000000000000e+00   0.000000000000e+00   0.000000000000e+00   0.000000000000e+00   0.000000000000e+00   0.000000000000e+00   0.000000000000e+00   0.000000000000e+00 
  0.000000000000e+00   0.000000000000e+00   0.000000000000e+00   0.000000000000e+00   0.000000000000e+00   0.000000000000e+00   0.000000000000e+00   0.000000000000e+00   0.000000000000e+00 
  0.000000000000e+00   0.000000000000e+00   0.000000000000e+00   0.000000000000e+00   0.000000000000e+00   0.000000000000e+00   0.000000000000e+00   0.000000000000e+00   0.000000000000e+00 
  0.000000000000e+00   0.000000000000e+00   0.000000000000e+00   0.000000000000e+00   0.000000000000e+00   0.000000000000e+00   0.000000000000e+00   0.000000000000e+00   0.000000000000e+00 
  0.000000000000e+00   0.000000000000e+00   0.000000000000e+00   0.000000000000e+00   0.000000000000e+00   0.000000000000e+00   0.000000000000e+00   0.000000000000e+00   0.000000000000e+00 
  0.000000000000e+00   0.000000000000e+00   0.000000000000e+00   0.000000000000e+00   0.000000000000e+00   0.000000000000e+00   0.000000000000e+00   0.000000000000e+00   0.000000000000e+00 
  0.000000000000e+00   0.000000000000e+00   0.000000000000e+00   0.000000000000e+00   0.000000000000e+00   0.000000000000e+00   0.000000000000e+00   0.000000000000e+00   0.000000000000e+00 
  0.000000000000e+00   0.000000000000e+00   0.000000000000e+00   0.000000000000e+00   0.000000000000e+00   0.000000000000e+00   0.000000000000e+00   0.000000000000e+00   0.000000000000e+00 
  0.000000000000e+00   0.000000000000e+00   0.000000000000e+00   0.000000000000e+00   0.000000000000e+00   0.000000000000e+00   0.000000000000e+00   0.000000000000e+00   0.000000000000e+00 
  0.000000000000e+00   0.000000000000e+00   0.000000000000e+00   0.000000000000e+00   0.000000000000e+00   0.000000000000e+00   0.000000000000e+00   0.000000000000e+00   0.000000000000e+00 
  0.000000000000e+00   0.000000000000e+00   0.000000000000e+00   0.000000000000e+00   0.000000000000e+00   0.000000000000e+00   0.000000000000e+00   0.000000000000e+00   0.000000000000e+00 
  0.000000000000e+00   0.000000000000e+00   0.000000000000e+00   0.000000000000e+00   0.000000000000e+00   0.000000000000e+00   0.000000000000e+00   0.000000000000e+00   0.000000000000e+00 
  0.000000000000e+00   0.000000000000e+00   0.000000000000e+00   0.000000000000e+00   0.000000000000e+00   0.000000000000e+00   0.000000000000e+00   0.000000000000e+00   0.000000000000e+00 
  0.000000000000e+00   0.000000000000e+00   0.000000000000e+00   0.000000000000e+00   0.000000000000e+00   0.000000000000e+00   0.000000000000e+00   0.000000000000e+00   0.000000000000e+00 
  0.000000000000e+00   0.000000000000e+00   0.000000000000e+00   0.000000000000e+00   0.000000000000e+00   0.000000000000e+00   0.000000000000e+00   0.000000000000e+00   0.000000000000e+00 
  0.000000000000e+00   0.000000000000e+00   0.000000000000e+00   0.000000000000e+00   0.000000000000e+00   0.000000000000e+00   0.000000000000e+00   0.000000000000e+00   0.000000000000e+00 
  0.000000000000e+00   0.000000000000e+00   0.000000000000e+00   0.000000000000e+00   0.000000000000e+00   0.000000000000e+00   0.000000000000e+00   0.000000000000e+00   0.000000000000e+00 
  0.000000000000e+00   0.000000000000e+00   0.000000000000e+00   0.000000000000e+00   0.000000000000e+00   0.000000000000e+00   0.000000000000e+00   0.000000000000e+00   0.000000000000e+00 
  0.000000000000e+00   0.000000000000e+00   0.000000000000e+00   0.000000000000e+00   0.000000000000e+00   0.000000000000e+00   0.000000000000e+00   8.869253158569e+00   8.907913208008e+00 
  8.973180770874e+00   9.047860145569e+00   9.118546485901e+00   9.178745269775e+00   9.226951599121e+00   9.264133453369e+00   9.292116165161e+00   9.312798500061e+00   9.327847480774e+00 
  9.338625907898e+00   9.346213340759e+00   9.351431846619e+00   9.354937553406e+00   9.357166290283e+00   9.358425140381e+00   9.359490394592e+00   0.000000000000e+00   0.000000000000e+00 
  8.882887840271e+00   8.939089775085e+00   9.030517578125e+00   9.126158714294e+00   9.208451271057e+00   9.273528099060e+00   9.323042869568e+00   9.359963417053e+00   9.387129783630e+00 
  9.406890869141e+00   9.421089172363e+00   9.431138992310e+00   9.438124656677e+00   9.442860603333e+00   9.445991516113e+00   9.447944641113e+00   9.449017524719e+00   9.450010299683e+00 
  0.000000000000e+00   0.000000000000e+00   8.899641990662e+00   9.001917839050e+00   9.163198471069e+00   9.307498931885e+00   9.411779403687e+00   9.484178543091e+00   9.534610748291e+00 
  9.570049285889e+00   9.595072746277e+00   9.612716674805e+00   9.625053405762e+00   9.633543014526e+00   9.639253616333e+00   9.642971038818e+00   9.645315170288e+00   9.646691322327e+00 
  9.647383689880e+00   9.648231506348e+00   0.000000000000e+00   0.000000000000e+00   8.897485733032e+00   9.101757049561e+00   9.428855895996e+00   9.663186073303e+00   9.792583465576e+00 
  9.867981910706e+00   9.915051460266e+00   9.945729255676e+00   9.966195106506e+00   9.979927062988e+00   9.989037513733e+00   9.994912147522e+00   9.998526573181e+00   1.000058650970e+01 
  1.000166320801e+01   1.000211811066e+01   1.000220966339e+01   1.000285053253e+01   0.000000000000e+00   0.000000000000e+00   8.795533180237e+00   9.192474365234e+00   9.874826431274e+00 
  1.026591396332e+01   1.040703296661e+01   1.046931648254e+01   1.050366497040e+01   1.052400779724e+01   1.053642559052e+01   1.054391002655e+01   1.054812145233e+01   1.055011177063e+01 
  1.055063629150e+01   1.055026340485e+01   1.054948139191e+01   1.054858589172e+01   1.054779434204e+01   1.054809665680e+01   0.000000000000e+00   0.000000000000e+00   8.697193145752e+00 
  9.549506187439e+00   1.106186676025e+01   1.169449710846e+01   1.178613471985e+01   1.179662895203e+01   1.179869842529e+01   1.179859924316e+01   1.179724502563e+01   1.179489517212e+01 
  1.179174518585e+01   1.178804206848e+01   1.178409576416e+01   1.178023433685e+01   1.177681350708e+01   1.177400493622e+01   1.177200698853e+01   1.177190971375e+01   0.000000000000e+00 
  0.000000000000e+00   7.795953750610e+00   8.242320060730e+00   9.041362762451e+00   9.455875396729e+00   9.576166152954e+00   9.623284339905e+00   9.648370742798e+00   9.662314414978e+00 
  9.669899940491e+00   9.673456192017e+00   9.674228668213e+00   9.673026084900e+00   9.670524597168e+00   9.667343139648e+00   9.664120674133e+00   9.661237716675e+00   9.659009933472e+00 
  9.658723831177e+00   0.000000000000e+00   0.000000000000e+00   6.641986846924e+00   6.864837646484e+00   7.221692085266e+00   7.464014053345e+00   7.582165241241e+00   7.642305374146e+00 
  7.675776958466e+00   7.695318698883e+00   7.706747055054e+00   7.712923526764e+00   7.715367317200e+00   7.715048789978e+00   7.712794303894e+00   7.709404945374e+00   7.705744743347e+00 
  7.702361583710e+00   7.699705600739e+00   7.699314594269e+00   0.000000000000e+00   0.000000000000e+00   5.105290412903e+00   5.200608730316e+00   5.347948074341e+00   5.476527214050e+00 
  5.561614513397e+00   5.613323211670e+00   5.644731521606e+00   5.664184570312e+00   5.676240921021e+00   5.683226585388e+00   5.686339378357e+00   5.686361789703e+00   5.684068202972e+00 
  5.680327415466e+00   5.676171779633e+00   5.672250270844e+00   5.669073581696e+00   5.668880939484e+00   0.000000000000e+00   0.000000000000e+00   3.102044820786e+00   3.137084960938e+00 
  3.191996574402e+00   3.245884656906e+00   3.286854743958e+00   3.314237833023e+00   3.331539630890e+00   3.342113971710e+00   3.348131895065e+00   3.350785493851e+00   3.350722789764e+00 
  3.348429679871e+00   3.344465970993e+00   3.339516162872e+00   3.334482908249e+00   3.329958200455e+00   3.326429128647e+00   3.325605869293e+00   0.000000000000e+00   0.000000000000e+00 
  5.561320781708e+00   5.544222354889e+00   5.517045974731e+00   5.489081859589e+00   5.464775085449e+00   5.443813800812e+00   5.423774242401e+00   5.402496814728e+00   5.379224300385e+00 
  5.354575157166e+00   5.329888343811e+00   5.307042598724e+00   5.288414478302e+00   5.276065349579e+00   5.270861625671e+00   5.271078586578e+00   5.274522781372e+00   5.279046535492e+00 
  0.000000000000e+00   0.000000000000e+00   2.734913110733e+00   2.722655057907e+00   2.709713697433e+00   2.703170537949e+00   2.705625772476e+00   2.716392755508e+00   2.732369661331e+00 
  2.749538183212e+00   2.763731479645e+00   2.770726919174e+00   2.766524076462e+00   2.748922109604e+00   2.719295740128e+00   2.682747125626e+00   2.646925449371e+00   2.618458747864e+00 
  2.601085662842e+00   2.594421625137e+00   0.000000000000e+00   0.000000000000e+00   4.224995136261e+00   4.182428836823e+00   4.139570236206e+00   4.115111827850e+00   4.113201618195e+00 
  4.129951953888e+00   4.158483505249e+00   4.190926551819e+00   4.218780517578e+00   4.233607292175e+00   4.227178096771e+00   4.194525718689e+00   4.137383937836e+00   4.065029621124e+00 
  3.993552923203e+00   3.938193082809e+00   3.907393217087e+00   3.898093938828e+00   0.000000000000e+00   0.000000000000e+00   5.461141586304e+00   5.325742244720e+00   5.220041751862e+00 
  5.168217182159e+00   5.166100502014e+00   5.197048187256e+00   5.246713638306e+00   5.300631046295e+00   5.345373630524e+00   5.370054721832e+00   5.362173557281e+00   5.312653064728e+00 
  5.222558975220e+00   5.103515625000e+00   4.985545158386e+00   4.899795055389e+00   4.864975452423e+00   4.879377841949e+00   0.000000000000e+00   0.000000000000e+00   6.793793678284e+00 
  6.309870719910e+00   6.090974807739e+00   6.003819942474e+00   6.017573356628e+00   6.088903427124e+00   6.182125568390e+00   6.266542434692e+00   6.334293365479e+00   6.376068592072e+00 
  6.373949527740e+00   6.312282085419e+00   6.190590858459e+00   6.011515617371e+00   5.833452701569e+00   5.711439609528e+00   5.685990810394e+00   5.856338500977e+00   0.000000000000e+00 
  0.000000000000e+00   7.856711387634e+00   7.122605800629e+00   6.652520656586e+00   6.553617954254e+00   6.663287639618e+00   6.808899402618e+00   6.958113193512e+00   7.066284656525e+00 
  7.146783351898e+00   7.201131820679e+00   7.207787990570e+00   7.137465476990e+00   7.010999202728e+00   6.746978759766e+00   6.482904911041e+00   6.319221019745e+00   6.318986415863e+00 
  6.979435443878e+00   0.000000000000e+00   0.000000000000e+00   6.385749816895e+00   7.620771884918e+00   6.919519424438e+00   6.792154788971e+00   7.309494972229e+00   7.856353282928e+00 
  7.955478191376e+00   7.838540554047e+00   8.108923912048e+00   8.166335105896e+00   8.059408187866e+00   8.110893249512e+00   7.991687297821e+00   7.503369331360e+00   7.164009571075e+00 
  7.029381752014e+00   6.743908882141e+00   5.813128948212e+00   0.000000000000e+00   0.000000000000e+00   5.990386486053e+00   8.947142601013e+00   6.885877609253e+00   6.072610378265e+00 
  6.786662101746e+00   8.202949523926e+00   9.009462356567e+00   8.068288803101e+00   8.588510513306e+00   8.919779777527e+00   8.606577873230e+00   8.634614944458e+00   8.785565376282e+00 
  7.298266410828e+00   7.492609024048e+00   7.586699008942e+00   7.252394199371e+00   7.166851043701e+00   0.000000000000e+00   0.000000000000e+00   0.000000000000e+00   0.000000000000e+00 
  0.000000000000e+00   0.000000000000e+00   0.000000000000e+00   0.000000000000e+00   0.000000000000e+00   0.000000000000e+00   0.000000000000e+00   0.000000000000e+00   0.000000000000e+00 
  0.000000000000e+00   0.000000000000e+00   0.000000000000e+00   0.000000000000e+00   0.000000000000e+00   0.000000000000e+00   0.000000000000e+00   0.000000000000e+00   0.000000000000e+00 
  0.000000000000e+00   0.000000000000e+00   0.000000000000e+00   0.000000000000e+00   0.000000000000e+00   0.000000000000e+00   0.000000000000e+00   0.000000000000e+00   0.000000000000e+00 
  0.000000000000e+00   0.000000000000e+00   0.000000000000e+00   0.000000000000e+00   0.000000000000e+00   0.000000000000e+00   0.000000000000e+00   0.000000000000e+00   0.000000000000e+00 
  0.000000000000e+00   0.000000000000e+00   7.753676414490e+00   7.787608623505e+00   7.845383644104e+00   7.912585735321e+00   7.977332115173e+00   8.033299446106e+00   8.078628540039e+00 
  8.113881111145e+00   8.140567779541e+00   8.160372734070e+00   8.174826622009e+00   8.185198783875e+00   8.192507743835e+00   8.197541236877e+00   8.200923919678e+00   8.203074455261e+00 
  8.204289436340e+00   8.205304145813e+00   0.000000000000e+00   0.000000000000e+00   7.757925510406e+00   7.804460048676e+00   7.881101608276e+00   7.964388847351e+00   8.038836479187e+00 
  8.099294662476e+00   8.146070480347e+00   8.181314468384e+00   8.207420349121e+00   8.226494789124e+00   8.240240097046e+00   8.249991416931e+00   8.256779670715e+00   8.261389732361e+00 
  8.264439582825e+00   8.266341209412e+00   8.267387390137e+00   8.268333435059e+00   0.000000000000e+00   0.000000000000e+00   7.753143310547e+00   7.830558776855e+00   7.953450202942e+00 
  8.072565078735e+00   8.165847778320e+00   8.233757019043e+00   8.282258033752e+00   8.316805839539e+00   8.341397285461e+00   8.358828544617e+00   8.371067047119e+00   8.379522323608e+00 
  8.385232925415e+00   8.388968467712e+00   8.391334533691e+00   8.392725944519e+00   8.393429756165e+00   8.394239425659e+00   0.000000000000e+00   0.000000000000e+00   7.718888759613e+00 
  7.857745170593e+00   8.075374603271e+00   8.256302833557e+00   8.374016761780e+00   8.448289871216e+00   8.496281623840e+00   8.528133392334e+00   8.549640655518e+00   8.564225196838e+00 
  8.574017524719e+00   8.580430030823e+00   8.584463119507e+00   8.586839675903e+00   8.588145256042e+00   8.588750839233e+00   8.588931083679e+00   8.589535713196e+00   0.000000000000e+00 
  0.000000000000e+00   7.592559337616e+00   7.835872173309e+00   8.226428985596e+00   8.500005722046e+00   8.638699531555e+00   8.711790084839e+00   8.754080772400e+00   8.780005455017e+00 
  8.796394348145e+00   8.806771278381e+00   8.813138961792e+00   8.816755294800e+00   8.818498611450e+00   8.819021224976e+00   8.818871498108e+00   8.818397521973e+00   8.817860603333e+00 
  8.818188667297e+00   0.000000000000e+00   0.000000000000e+00   7.350313663483e+00   7.787979125977e+00   8.514237403870e+00   8.904966354370e+00   9.036753654480e+00   9.091040611267e+00 
  9.119119644165e+00   9.135102272034e+00   9.144356727600e+00   9.149384498596e+00   9.151555061340e+00   9.151750564575e+00   9.150653839111e+00   9.148832321167e+00   9.146824836731e+00 
  9.144948959351e+00   9.143479347229e+00   9.143424034119e+00   0.000000000000e+00   0.000000000000e+00   6.596138000488e+00   6.852798938751e+00   7.270931720734e+00   7.551876544952e+00 
  7.684545516968e+00   7.750467777252e+00   7.786675930023e+00   7.807549953461e+00   7.819708824158e+00   7.826423168182e+00   7.829449176788e+00   7.829875469208e+00   7.828546047211e+00 
  7.826193809509e+00   7.823533535004e+00   7.821014881134e+00   7.819022178650e+00   7.818765640259e+00   0.000000000000e+00   0.000000000000e+00   5.626702785492e+00   5.771882534027e+00 
  6.000060558319e+00   6.178319931030e+00   6.284751892090e+00   6.346588134766e+00   6.383337497711e+00   6.405594348907e+00   6.418967247009e+00   6.426432609558e+00   6.429634571075e+00 
  6.429643630981e+00   6.427393913269e+00   6.423816204071e+00   6.419891834259e+00   6.416255950928e+00   6.413439750671e+00   6.412805080414e+00   0.000000000000e+00   0.000000000000e+00 
  4.464625358582e+00   4.539377689362e+00   4.655902862549e+00   4.760992050171e+00   4.835286617279e+00   4.883783817291e+00   4.914935588837e+00   4.934906482697e+00   4.947353363037e+00 
  4.954248428345e+00   4.956635951996e+00   4.955296516418e+00   4.951159954071e+00   4.945387363434e+00   4.939337730408e+00   4.933913230896e+00   4.929867744446e+00   4.928721427917e+00 
  0.000000000000e+00   0.000000000000e+00   3.184957981110e+00   3.217976331711e+00   3.270487070084e+00   3.323132038116e+00   3.365379571915e+00   3.396193981171e+00   3.417932510376e+00 
  3.432946205139e+00   3.442609071732e+00   3.447401046753e+00   3.447359085083e+00   3.442737340927e+00   3.434463739395e+00   3.424157857895e+00   3.413895606995e+00   3.405127763748e+00 
  3.398951053619e+00   3.396435737610e+00   0.000000000000e+00   0.000000000000e+00   2.095869302750e+00   2.103975296021e+00   2.118189096451e+00   2.134904623032e+00   2.151533365250e+00 
  2.167172670364e+00   2.181325435638e+00   2.193355798721e+00   2.202182531357e+00   2.206193208694e+00   2.203716516495e+00   2.194006919861e+00   2.178117036819e+00   2.158899784088e+00 
  2.140213251114e+00   2.124956846237e+00   2.115004301071e+00   2.110079526901e+00   0.000000000000e+00   0.000000000000e+00   2.731149911880e+00   2.724494218826e+00   2.718245506287e+00 
  2.717263698578e+00   2.723784208298e+00   2.737753868103e+00   2.756377220154e+00   2.775738239288e+00   2.791461229324e+00   2.798860073090e+00   2.793049335480e+00   2.771102666855e+00 
  2.734814643860e+00   2.690835714340e+00   2.648286104202e+00   2.614406108856e+00   2.593394517899e+00   2.583561658859e+00   0.000000000000e+00   0.000000000000e+00   3.595358848572e+00 
  3.568006515503e+00   3.537743806839e+00   3.518921852112e+00   3.518115043640e+00   3.535936832428e+00   3.565747976303e+00   3.599391222000e+00   3.628184795380e+00   3.644011497498e+00 
  3.637091159821e+00   3.599996328354e+00   3.534815311432e+00   3.454119443893e+00   3.376088142395e+00   3.315231323242e+00   3.279619932175e+00   3.265959024429e+00   0.000000000000e+00 
  0.000000000000e+00   4.491169452667e+00   4.420399665833e+00   4.349567413330e+00   4.305364608765e+00   4.297626018524e+00   4.327650547028e+00   4.379370212555e+00   4.437876701355e+00 
  4.489344596863e+00   4.522836208344e+00   4.520919322968e+00   4.467576503754e+00   4.363892555237e+00   4.229944705963e+00   4.099198341370e+00   3.999444246292e+00   3.947539329529e+00 
  3.936919212341e+00   0.000000000000e+00   0.000000000000e+00   5.385905742645e+00   5.227802276611e+00   5.096229553223e+00   5.021110534668e+00   5.010885715485e+00   5.070646762848e+00 
  5.161731243134e+00   5.258647441864e+00   5.342739582062e+00   5.405618667603e+00   5.419208526611e+00   5.352791309357e+00   5.206127166748e+00   5.001577854156e+00   4.795478820801e+00 
  4.636827945709e+00   4.563247203827e+00   4.579910755157e+00   0.000000000000e+00   0.000000000000e+00   6.008007049561e+00   5.789139270782e+00   5.623728752136e+00   5.550477504730e+00 
  5.570038795471e+00   5.686849117279e+00   5.831878662109e+00   5.971220016479e+00   6.080885410309e+00   6.167458534241e+00   6.199601650238e+00   6.127750873566e+00   5.969835758209e+00 
  5.694680690765e+00   5.393056392670e+00   5.141963958740e+00   4.993093967438e+00   5.047703742981e+00   0.000000000000e+00   0.000000000000e+00   6.515590190887e+00   6.358609676361e+00 
  5.983708381653e+00   5.977712631226e+00   6.210122585297e+00   6.395174026489e+00   6.475299358368e+00   6.616650581360e+00   6.777191162109e+00   6.946319103241e+00   7.001754283905e+00 
  6.912096977234e+00   6.743106365204e+00   6.397137165070e+00   6.030725955963e+00   5.712792396545e+00   5.522943496704e+00   5.558959484100e+00   0.000000000000e+00   0.000000000000e+00 
  7.327932834625e+00   7.312861919403e+00   6.321044921875e+00   6.279950618744e+00   7.276531219482e+00   7.598054885864e+00   7.440211296082e+00   7.588881969452e+00   7.801017284393e+00 
  8.171997070312e+00   8.053128242493e+00   7.962586402893e+00   7.737171649933e+00   7.220299243927e+00   6.938813686371e+00   6.716907501221e+00   6.584721565247e+00   6.708368301392e+00 
  0.000000000000e+00   0.000000000000e+00   0.000000000000e+00   0.000000000000e+00   0.000000000000e+00   0.000000000000e+00   0.000000000000e+00   0.000000000000e+00   0.000000000000e+00 
  0.000000000000e+00   0.000000000000e+00   0.000000000000e+00   0.000000000000e+00   0.000000000000e+00   0.000000000000e+00   0.000000000000e+00   0.000000000000e+00   0.000000000000e+00 
  0.000000000000e+00   0.000000000000e+00   0.000000000000e+00   0.000000000000e+00   0.000000000000e+00   0.000000000000e+00   0.000000000000e+00   0.000000000000e+00   0.000000000000e+00 
  0.000000000000e+00   0.000000000000e+00   0.000000000000e+00   0.000000000000e+00   0.000000000000e+00   0.000000000000e+00   0.000000000000e+00   0.000000000000e+00   0.000000000000e+00 
  0.000000000000e+00   0.000000000000e+00   0.000000000000e+00   0.000000000000e+00   0.000000000000e+00   0.000000000000e+00   6.547830104828e+00   6.575060367584e+00   6.621963024139e+00 
  6.677624225616e+00   6.732510089874e+00   6.780982017517e+00   6.820946216583e+00   6.852460861206e+00   6.876562118530e+00   6.894582748413e+00   6.907804965973e+00   6.917324542999e+00 
  6.924041271210e+00   6.928668975830e+00   6.931783199310e+00   6.933761596680e+00   6.934881210327e+00   6.935793399811e+00   0.000000000000e+00   0.000000000000e+00   6.536680698395e+00 
  6.571690082550e+00   6.630366325378e+00   6.696681976318e+00   6.758564949036e+00   6.810618400574e+00   6.851939678192e+00   6.883637428284e+00   6.907406330109e+00   6.924919605255e+00 
  6.937614917755e+00   6.946654796600e+00   6.952960014343e+00   6.957248687744e+00   6.960092544556e+00   6.961862564087e+00   6.962832927704e+00   6.963684558868e+00   0.000000000000e+00 
  0.000000000000e+00   6.505976676941e+00   6.558619499207e+00   6.643709182739e+00   6.732456684113e+00   6.807793140411e+00   6.866049289703e+00   6.909352302551e+00   6.940996646881e+00 
  6.963896751404e+00   6.980309963226e+00   6.991922855377e+00   6.999992847443e+00   7.005475044250e+00   7.009083271027e+00   7.011381626129e+00   7.012730598450e+00   7.013409137726e+00 
  7.014130592346e+00   0.000000000000e+00   0.000000000000e+00   6.434859275818e+00   6.518197536469e+00   6.649139404297e+00   6.772778987885e+00   6.865746021271e+00   6.930499076843e+00 
  6.974942207336e+00   7.005548477173e+00   7.026711463928e+00   7.041306018829e+00   7.051246643066e+00   7.057853698730e+00   7.062088489532e+00   7.064656734467e+00   7.066121578217e+00 
  7.066835403442e+00   7.067084789276e+00   7.067603111267e+00   0.000000000000e+00   0.000000000000e+00   6.269817352295e+00   6.396442890167e+00   6.593248844147e+00   6.759985446930e+00 
  6.869256019592e+00   6.937409877777e+00   6.980635166168e+00   7.008689403534e+00   7.027146339417e+00   7.039265632629e+00   7.047044277191e+00   7.051785469055e+00   7.054407596588e+00 
  7.055604457855e+00   7.055956363678e+00   7.055823326111e+00   7.055507183075e+00   7.055757999420e+00   0.000000000000e+00   0.000000000000e+00   5.957786560059e+00   6.129480361938e+00 
  6.397506237030e+00   6.598101139069e+00   6.712715625763e+00   6.778312683105e+00   6.817701816559e+00   6.842200756073e+00   6.857636451721e+00   6.867209434509e+00   6.872787475586e+00 
  6.875563144684e+00   6.876409530640e+00   6.876035690308e+00   6.875073432922e+00   6.873912334442e+00   6.872888088226e+00   6.872824192047e+00   0.000000000000e+00   0.000000000000e+00 