# vtk DataFile Version 2.0
Written using VisIt writer
ASCII
DATASET RECTILINEAR_GRID
DIMENSIONS 20 20 20
X_COORDINATES 20 float
  0.000000000000e+00   1.000000000000e+00   2.000000000000e+00   3.000000000000e+00   4.000000000000e+00   5.000000000000e+00   6.000000000000e+00   7.000000000000e+00   8.000000000000e+00 
  9.000000000000e+00   1.000000000000e+01   1.100000000000e+01   1.200000000000e+01   1.300000000000e+01   1.400000000000e+01   1.500000000000e+01   1.600000000000e+01   1.700000000000e+01 
  1.800000000000e+01   1.900000000000e+01 
Y_COORDINATES 20 float
  0.000000000000e+00   1.000000000000e+00   2.000000000000e+00   3.000000000000e+00   4.000000000000e+00   5.000000000000e+00   6.000000000000e+00   7.000000000000e+00   8.000000000000e+00 
  9.000000000000e+00   1.000000000000e+01   1.100000000000e+01   1.200000000000e+01   1.300000000000e+01   1.400000000000e+01   1.500000000000e+01   1.600000000000e+01   1.700000000000e+01 
  1.800000000000e+01   1.900000000000e+01 
Z_COORDINATES 20 float
  0.000000000000e+00   1.000000000000e+00   2.000000000000e+00   3.000000000000e+00   4.000000000000e+00   5.000000000000e+00   6.000000000000e+00   7.000000000000e+00   8.000000000000e+00 
  9.000000000000e+00   1.000000000000e+01   1.100000000000e+01   1.200000000000e+01   1.300000000000e+01   1.400000000000e+01   1.500000000000e+01   1.600000000000e+01   1.700000000000e+01 
  1.800000000000e+01   1.900000000000e+01 
CELL_DATA 6859
POINT_DATA 8000
SCALARS pressure float
LOOKUP_TABLE default
  0.000000000000e+00   0.000000000000e+00   0.000000000000e+00   0.000000000000e+00   0.000000000000e+00   0.000000000000e+00   0.000000000000e+00   0.000000000000e+00   0.000000000000e+00 
  0.000000000000e+00   0.000000000000e+00   0.000000000000e+00   0.000000000000e+00   0.000000000000e+00   0.000000000000e+00   0.000000000000e+00   0.000000000000e+00   0.000000000000e+00 
  0.000000000000e+00   0.000000000000e+00   0.000000000000e+00   0.000000000000e+00   0.000000000000e+00   0.000000000000e+00   0.000000000000e+00   0.000000000000e+00   0.000000000000e+00 
  0.000000000000e+00   0.000000000000e+00   0.000000000000e+00   0.000000000000e+00   0.000000000000e+00   0.000000000000e+00   0.000000000000e+00   0.000000000000e+00   0.000000000000e+00 
  0.000000000000e+00   0.000000000000e+00   0.000000000000e+00   0.000000000000e+00   0.000000000000e+00   0.000000000000e+00   0.000000000000e+00   0.000000000000e+00   0.000000000000e+00 
  0.000000000000e+00   0.000000000000e+00   0.000000000000e+00   0.000000000000e+00   0.000000000000e+00   0.000000000000e+00   0.000000000000e+00   0.000000000000e+00   0.000000000000e+00 
  0.000000000000e+00   0.000000000000e+00   0.000000000000e+00   0.000000000000e+00   0.000000000000e+00   0.000000000000e+00   0.000000000000e+00   0.000000000000e+00   0.000000000000e+00 
  0.000000000000e+00   0.000000000000e+00   0.000000000000e+00   0.000000000000e+00   0.000000000000e+00   0.000000000000e+00   0.000000000000e+00   0.000000000000e+00   0.000000000000e+00 
  0.000000000000e+00   0.000000000000e+00   0.000000000000e+00   0.000000000000e+00   0.000000000000e+00   0.000000000000e+00   0.000000000000e+00   0.000000000000e+00   0.000000000000e+00 
  0.000000000000e+00   0.000000000000e+00   0.000000000000e+00   0.000000000000e+00   0.000000000000e+00   0.000000000000e+00   0.000000000000e+00   0.000000000000e+00   0.000000000000e+00 
  0.000000000000e+00   0.000000000000e+00   0.000000000000e+00   0.000000000000e+00   0.000000000000e+00   0.000000000000e+00   0.000000000000e+00   0.000000000000e+00   0.000000000000e+00 
  0.000000000000e+00   0.000000000000e+00   0.000000000000e+00   0.000000000000e+00   0.000000000000e+00   0.000000000000e+00   0.000000000000e+00   0.000000000000e+00   0.000000000000e+00 
  0.000000000000e+00   0.000000000000e+00   0.000000000000e+00   0.000000000000e+00   0.000000000000e+00   0.000000000000e+00   0.000000000000e+00   0.000000000000e+00   0.000000000000e+00 
  0.000000000000e+00   0.000000000000e+00   0.000000000000e+00   0.000000000000e+00   0.000000000000e+00   0.000000000000e+00   0.000000000000e+00   0.000000000000e+00   0.000000000000e+00 
  0.000000000000e+00   0.000000000000e+00   0.000000000000e+00   0.000000000000e+00   0.000000000000e+00   0.000000000000e+00   0.000000000000e+00   0.000000000000e+00   0.000000000000e+00 
  0.000000000000e+00   0.000000000000e+00   0.000000000000e+00   0.000000000000e+00   0.000000000000e+00   0.000000000000e+00   0.000000000000e+00   0.000000000000e+00   0.000000000000e+00 
  0.000000000000e+00   0.000000000000e+00   0.000000000000e+00   0.000000000000e+00   0.000000000000e+00   0.000000000000e+00   0.000000000000e+00   0.000000000000e+00   0.000000000000e+00 
  0.000000000000e+00   0.000000000000e+00   0.000000000000e+00   0.000000000000e+00   0.000000000000e+00   0.000000000000e+00   0.000000000000e+00   0.000000000000e+00   0.000000000000e+00 
  0.000000000000e+00   0.000000000000e+00   0.000000000000e+00   0.000000000000e+00   0.000000000000e+00   0.000000000000e+00   0.000000000000e+00   0.000000000000e+00   0.000000000000e+00 
  0.000000000000e+00   0.000000000000e+00   0.000000000000e+00   0.000000000000e+00   0.000000000000e+00   0.000000000000e+00   0.000000000000e+00   0.000000000000e+00   0.000000000000e+00 
  0.000000000000e+00   0.000000000000e+00   0.000000000000e+00   0.000000000000e+00   0.000000000000e+00   0.000000000000e+00   0.000000000000e+00   0.000000000000e+00   0.000000000000e+00 
  0.000000000000e+00   0.000000000000e+00   0.000000000000e+00   0.000000000000e+00   0.000000000000e+00   0.000000000000e+00   0.000000000000e+00   0.000000000000e+00   0.000000000000e+00 
  0.000000000000e+00   0.000000000000e+00   0.000000000000e+00   0.000000000000e+00   0.000000000000e+00   0.000000000000e+00   0.000000000000e+00   0.000000000000e+00   0.000000000000e+00 
  0.000000000000e+00   0.000000000000e+00   0.000000000000e+00   0.000000000000e+00   0.000000000000e+00   0.000000000000e+00   0.000000000000e+00   0.000000000000e+00   0.000000000000e+00 
  0.000000000000e+00   0.000000000000e+00   0.000000000000e+00   0.000000000000e+00   0.000000000000e+00   0.000000000000e+00   0.000000000000e+00   0.000000000000e+00   0.000000000000e+00 
  0.000000000000e+00   0.000000000000e+00   0.000000000000e+00   0.000000000000e+00   0.000000000000e+00   0.000000000000e+00   0.000000000000e+00   0.000000000000e+00   0.000000000000e+00 
  0.000000000000e+00   0.000000000000e+00   0.000000000000e+00   0.000000000000e+00   0.000000000000e+00   0.000000000000e+00   0.000000000000e+00   0.000000000000e+00   0.000000000000e+00 
  0.000000000000e+00   0.000000000000e+00   0.000000000000e+00   0.000000000000e+00   0.000000000000e+00   0.000000000000e+00   0.000000000000e+00   0.000000000000e+00   0.000000000000e+00 
  0.000000000000e+00   0.000000000000e+00   0.000000000000e+00   0.000000000000e+00   0.000000000000e+00   0.000000000000e+00   0.000000000000e+00   0.000000000000e+00   0.000000000000e+00 
  0.000000000000e+00   0.000000000000e+00   0.000000000000e+00   0.000000000000e+00   0.000000000000e+00   0.000000000000e+00   0.000000000000e+00   0.000000000000e+00   0.000000000000e+00 
  0.000000000000e+00   0.000000000000e+00   0.000000000000e+00   0.000000000000e+00   0.000000000000e+00   0.000000000000e+00   0.000000000000e+00   0.000000000000e+00   0.000000000000e+00 
  0.000000000000e+00   0.000000000000e+00   0.000000000000e+00   0.000000000000e+00   0.000000000000e+00   0.000000000000e+00   0.000000000000e+00   0.000000000000e+00   0.000000000000e+00 
  0.000000000000e+00   0.000000000000e+00   0.000000000000e+00   0.000000000000e+00   0.000000000000e+00   0.000000000000e+00   0.000000000000e+00   0.000000000000e+00   0.000000000000e+00 
  0.000000000000e+00   0.000000000000e+00   0.000000000000e+00   0.000000000000e+00   0.000000000000e+00   0.000000000000e+00   0.000000000000e+00   0.000000000000e+00   0.000000000000e+00 
  0.000000000000e+00   0.000000000000e+00   0.000000000000e+00   0.000000000000e+00   0.000000000000e+00   0.000000000000e+00   0.000000000000e+00   0.000000000000e+00   0.000000000000e+00 
  0.000000000000e+00   0.000000000000e+00   0.000000000000e+00   0.000000000000e+00   0.000000000000e+00   0.000000000000e+00   0.000000000000e+00   0.000000000000e+00   0.000000000000e+00 
  0.000000000000e+00   0.000000000000e+00   0.000000000000e+00   0.000000000000e+00   0.000000000000e+00   0.000000000000e+00   0.000000000000e+00   0.000000000000e+00   0.000000000000e+00 
  0.000000000000e+00   0.000000000000e+00   0.000000000000e+00   0.000000000000e+00   0.000000000000e+00   0.000000000000e+00   0.000000000000e+00   0.000000000000e+00   0.000000000000e+00 
  0.000000000000e+00   0.000000000000e+00   0.000000000000e+00   0.000000000000e+00   0.000000000000e+00   0.000000000000e+00   0.000000000000e+00   0.000000000000e+00   0.000000000000e+00 
  0.000000000000e+00   0.000000000000e+00   0.000000000000e+00   0.000000000000e+00   0.000000000000e+00   0.000000000000e+00   0.000000000000e+00   0.000000000000e+00   0.000000000000e+00 
  0.000000000000e+00   0.000000000000e+00   0.000000000000e+00   0.000000000000e+00   0.000000000000e+00   0.000000000000e+00   0.000000000000e+00   0.000000000000e+00   0.000000000000e+00 
  0.000000000000e+00   0.000000000000e+00   0.000000000000e+00   0.000000000000e+00   0.000000000000e+00   0.000000000000e+00   0.000000000000e+00   0.000000000000e+00   0.000000000000e+00 
  0.000000000000e+00   0.000000000000e+00   0.000000000000e+00   0.000000000000e+00   0.000000000000e+00   0.000000000000e+00   0.000000000000e+00   0.000000000000e+00   0.000000000000e+00 
  0.000000000000e+00   0.000000000000e+00   0.000000000000e+00   0.000000000000e+00   0.000000000000e+00   0.000000000000e+00   0.000000000000e+00   0.000000000000e+00   0.000000000000e+00 
  0.000000000000e+00   0.000000000000e+00   0.000000000000e+00   0.000000000000e+00   0.000000000000e+00   0.000000000000e+00   0.000000000000e+00   0.000000000000e+00   0.000000000000e+00 
  0.000000000000e+00   0.000000000000e+00   0.000000000000e+00   0.000000000000e+00   0.000000000000e+00   0.000000000000e+00   0.000000000000e+00   0.000000000000e+00   0.000000000000e+00 
  0.000000000000e+00   0.000000000000e+00   0.000000000000e+00   0.000000000000e+00   0.000000000000e+00   0.000000000000e+00   0.000000000000e+00   1.059336376190e+01   1.059349918365e+01 
  1.059376239777e+01   1.059413814545e+01   1.059460449219e+01   1.059514045715e+01   1.059572410583e+01   1.059633731842e+01   1.059696578979e+01   1.059760189056e+01   1.059824085236e+01 
  1.059887981415e+01   1.059950923920e+01   1.060011768341e+01   1.060066699982e+01   1.060115432739e+01   1.060143089294e+01   1.060179996490e+01   0.000000000000e+00   0.000000000000e+00 
  1.054648685455e+01   1.054663658142e+01   1.054692649841e+01   1.054733848572e+01   1.054784774780e+01   1.054842948914e+01   1.054905700684e+01   1.054971027374e+01   1.055037498474e+01 
  1.055104160309e+01   1.055171012878e+01   1.055237865448e+01   1.055304336548e+01   1.055369281769e+01   1.055428791046e+01   1.055482006073e+01   1.055513000488e+01   1.055552196503e+01 
  0.000000000000e+00   0.000000000000e+00   1.041892910004e+01   1.041905593872e+01   1.041929912567e+01   1.041964530945e+01   1.042007732391e+01   1.042057323456e+01   1.042111587524e+01 
  1.042168807983e+01   1.042227840424e+01   1.042288112640e+01   1.042349815369e+01   1.042413711548e+01   1.042479705811e+01   1.042546844482e+01   1.042610740662e+01   1.042669582367e+01 
  1.042705154419e+01   1.042749214172e+01   0.000000000000e+00   0.000000000000e+00   1.025621795654e+01   1.025638675690e+01   1.025671482086e+01   1.025718021393e+01   1.025775051117e+01 
  1.025839042664e+01   1.025907135010e+01   1.025976943970e+01   1.026046848297e+01   1.026116275787e+01   1.026186084747e+01   1.026258277893e+01   1.026334381104e+01   1.026414203644e+01 
  1.026492691040e+01   1.026566600800e+01   1.026613140106e+01   1.026665973663e+01   0.000000000000e+00   0.000000000000e+00   9.984773635864e+00   9.984830856323e+00   9.984934806824e+00 
  9.985093116760e+00   9.985305786133e+00   9.985570907593e+00   9.985890388489e+00   9.986264228821e+00   9.986682891846e+00   9.987144470215e+00   9.987658500671e+00   9.988249778748e+00 
  9.988947868347e+00   9.989757537842e+00   9.990613937378e+00   9.991462707520e+00   9.992018699646e+00   9.992666244507e+00   0.000000000000e+00   0.000000000000e+00   9.673036575317e+00 
  9.673138618469e+00   9.673330307007e+00   9.673620223999e+00   9.673996925354e+00   9.674438476562e+00   9.674938201904e+00   9.675481796265e+00   9.676043510437e+00   9.676609039307e+00 
  9.677196502686e+00   9.677865028381e+00   9.678683280945e+00   9.679677009583e+00   9.680768966675e+00   9.681878089905e+00   9.682627677917e+00   9.683465003967e+00   0.000000000000e+00 
  0.000000000000e+00   9.253034591675e+00   9.253512382507e+00   9.254446029663e+00   9.255749702454e+00   9.257317543030e+00   9.259024620056e+00   9.260732650757e+00   9.262332916260e+00 
  9.263752937317e+00   9.264968872070e+00   9.266035079956e+00   9.267085075378e+00   9.268271446228e+00   9.269673347473e+00   9.271210670471e+00   9.272768974304e+00   9.273835182190e+00 
  9.274965286255e+00   0.000000000000e+00   0.000000000000e+00   8.687982559204e+00   8.688174247742e+00   8.688566207886e+00   8.689157485962e+00   8.689890861511e+00   8.690730094910e+00 
  8.691654205322e+00   8.692621231079e+00   8.693542480469e+00   8.694330215454e+00   8.695005416870e+00   8.695742607117e+00   8.696760177612e+00   8.698158264160e+00   8.699810028076e+00 
  8.701546669006e+00   8.702718734741e+00   8.704132080078e+00   0.000000000000e+00   0.000000000000e+00   8.024449348450e+00   8.023779869080e+00   8.022715568542e+00   8.021604537964e+00 
  8.020472526550e+00   8.019462585449e+00   8.018780708313e+00   8.018459320068e+00   8.018361091614e+00   8.018278121948e+00   8.018169403076e+00   8.018265724182e+00   8.018857955933e+00 
  8.020048141479e+00   8.021628379822e+00   8.023369789124e+00   8.024476051331e+00   8.026203155518e+00   0.000000000000e+00   0.000000000000e+00   7.194409370422e+00   7.193557739258e+00 
  7.192295551300e+00   7.191370964050e+00   7.190986156464e+00   7.191066265106e+00   7.191208362579e+00   7.191367149353e+00   7.191465377808e+00   7.191230297089e+00   7.190725326538e+00 
  7.190450191498e+00   7.190855503082e+00   7.192042350769e+00   7.193676471710e+00   7.195438385010e+00   7.196353435516e+00   7.198485374451e+00   0.000000000000e+00   0.000000000000e+00 
  6.093883991241e+00   6.093893527985e+00   6.094721794128e+00   6.096008300781e+00   6.096842288971e+00   6.096733570099e+00   6.095817565918e+00   6.094795703888e+00   6.093830108643e+00 
  6.092642307281e+00   6.091166019440e+00   6.090047359467e+00   6.089997768402e+00   6.091001987457e+00   6.092507839203e+00   6.093950271606e+00   6.094173908234e+00   6.096570014954e+00 
  0.000000000000e+00   0.000000000000e+00   4.746968269348e+00   4.747999668121e+00   4.751638889313e+00   4.755849361420e+00   4.757709503174e+00   4.757091522217e+00   4.754628658295e+00 
  4.752070903778e+00   4.749998569489e+00   4.747749805450e+00   4.745379924774e+00   4.743453025818e+00   4.743119716644e+00   4.743676185608e+00   4.744695186615e+00   4.745275497437e+00 
  4.744257450104e+00   4.746485710144e+00   0.000000000000e+00   0.000000000000e+00   3.211162328720e+00   3.214235067368e+00   3.219945430756e+00   3.219249486923e+00   3.216371536255e+00 
  3.207903862000e+00   3.199580430984e+00   3.191564559937e+00   3.185765504837e+00   3.181633949280e+00   3.180507183075e+00   3.178361654282e+00   3.176549196243e+00   3.175279855728e+00 
  3.175483226776e+00   3.175814867020e+00   3.174805402756e+00   3.176928520203e+00   0.000000000000e+00   0.000000000000e+00   1.437207460403e+00   1.423753261566e+00   1.402609467506e+00 
  1.389784693718e+00   1.382593154907e+00   1.378496885300e+00   1.375796318054e+00   1.374189496040e+00   1.375027060509e+00   1.374817252159e+00   1.375026941299e+00   1.376348376274e+00 
  1.376793742180e+00   1.377182841301e+00   1.378393173218e+00   1.379433274269e+00   1.379273414612e+00   1.380994915962e+00   0.000000000000e+00   0.000000000000e+00   0.000000000000e+00 
  0.000000000000e+00   0.000000000000e+00   0.000000000000e+00   0.000000000000e+00   0.000000000000e+00   0.000000000000e+00   0.000000000000e+00   0.000000000000e+00   0.000000000000e+00 
  0.000000000000e+00   0.000000000000e+00   0.000000000000e+00   0.000000000000e+00   0.000000000000e+00   0.000000000000e+00   0.000000000000e+00   0.000000000000e+00   0.000000000000e+00 
  0.000000000000e+00   0.000000000000e+00   0.000000000000e+00   0.000000000000e+00   0.000000000000e+00   0.000000000000e+00   0.000000000000e+00   0.000000000000e+00   0.000000000000e+00 
  0.000000000000e+00   0.000000000000e+00   0.000000000000e+00   0.000000000000e+00   0.000000000000e+00   0.000000000000e+00   0.000000000000e+00   0.000000000000e+00   0.000000000000e+00 
  0.000000000000e+00   0.000000000000e+00   0.000000000000e+00   0.000000000000e+00   0.000000000000e+00   0.000000000000e+00   0.000000000000e+00   0.000000000000e+00   0.000000000000e+00 
  0.000000000000e+00   0.000000000000e+00   0.000000000000e+00   0.000000000000e+00   0.000000000000e+00   0.000000000000e+00   0.000000000000e+00   0.000000000000e+00   0.000000000000e+00 
  0.000000000000e+00   0.000000000000e+00   0.000000000000e+00   0.000000000000e+00   0.000000000000e+00   0.000000000000e+00   0.000000000000e+00   0.000000000000e+00   0.000000000000e+00 
  0.000000000000e+00   0.000000000000e+00   0.000000000000e+00   0.000000000000e+00   0.000000000000e+00   0.000000000000e+00   0.000000000000e+00   0.000000000000e+00   0.000000000000e+00 
  0.000000000000e+00   0.000000000000e+00   0.000000000000e+00   0.000000000000e+00   0.000000000000e+00   0.000000000000e+00   0.000000000000e+00   0.000000000000e+00   0.000000000000e+00 
  0.000000000000e+00   0.000000000000e+00   0.000000000000e+00   0.000000000000e+00   0.000000000000e+00   0.000000000000e+00   0.000000000000e+00   0.000000000000e+00   0.000000000000e+00 
  0.000000000000e+00   0.000000000000e+00   0.000000000000e+00   0.000000000000e+00   0.000000000000e+00   0.000000000000e+00   0.000000000000e+00   0.000000000000e+00   0.000000000000e+00 
  0.000000000000e+00   0.000000000000e+00   0.000000000000e+00   0.000000000000e+00   0.000000000000e+00   0.000000000000e+00   0.000000000000e+00   0.000000000000e+00   0.000000000000e+00 
  0.000000000000e+00   0.000000000000e+00   0.000000000000e+00   0.000000000000e+00   0.000000000000e+00   0.000000000000e+00   0.000000000000e+00   0.000000000000e+00   0.000000000000e+00 
  0.000000000000e+00   0.000000000000e+00   9.594766616821e+00   9.594900131226e+00   9.595157623291e+00   9.595524787903e+00   9.595981597900e+00   9.596504211426e+00   9.597072601318e+00 
  9.597667694092e+00   9.598278045654e+00   9.598895072937e+00   9.599514961243e+00   9.600135803223e+00   9.600750923157e+00   9.601349830627e+00   9.601893424988e+00   9.602376937866e+00 
  9.602656364441e+00   9.603016853333e+00   0.000000000000e+00   0.000000000000e+00   9.546272277832e+00   9.546417236328e+00   9.546698570251e+00   9.547098159790e+00   9.547592163086e+00 
  9.548154830933e+00   9.548762321472e+00   9.549393653870e+00   9.550034523010e+00   9.550678253174e+00   9.551321983337e+00   9.551970481873e+00   9.552618980408e+00   9.553258895874e+00 
  9.553850173950e+00   9.554382324219e+00   9.554698944092e+00   9.555082321167e+00   0.000000000000e+00   0.000000000000e+00   9.428355216980e+00   9.428484916687e+00   9.428731918335e+00 
  9.429083824158e+00   9.429518699646e+00   9.430016517639e+00   9.430556297302e+00   9.431121826172e+00   9.431700706482e+00   9.432287216187e+00   9.432886123657e+00   9.433506011963e+00 
  9.434152603149e+00   9.434821128845e+00   9.435465812683e+00   9.436064720154e+00   9.436435699463e+00   9.436870574951e+00   0.000000000000e+00   0.000000000000e+00   9.260018348694e+00 
  9.260182380676e+00   9.260499000549e+00   9.260947227478e+00   9.261494636536e+00   9.262106895447e+00   9.262756347656e+00   9.263421058655e+00   9.264082908630e+00   9.264734268188e+00 
  9.265386581421e+00   9.266066551208e+00   9.266798973083e+00   9.267589569092e+00   9.268387794495e+00   9.269151687622e+00   9.269649505615e+00   9.270176887512e+00   0.000000000000e+00 
  0.000000000000e+00   9.014625549316e+00   9.014722824097e+00   9.014904022217e+00   9.015165328979e+00   9.015486717224e+00   9.015847206116e+00   9.016242980957e+00   9.016674995422e+00 
  9.017127037048e+00   9.017583847046e+00   9.018059730530e+00   9.018607139587e+00   9.019280433655e+00   9.020098686218e+00   9.020998001099e+00   9.021909713745e+00   9.022535324097e+00 
  9.023196220398e+00   0.000000000000e+00   0.000000000000e+00   8.676721572876e+00   8.676891326904e+00   8.677214622498e+00   8.677681922913e+00   8.678239822388e+00   8.678804397583e+00 
  8.679385185242e+00   8.679989814758e+00   8.680585861206e+00   8.681140899658e+00   8.681674957275e+00   8.682281494141e+00   8.683072090149e+00   8.684104919434e+00   8.685306549072e+00 
  8.686564445496e+00   8.687459945679e+00   8.688343048096e+00   0.000000000000e+00   0.000000000000e+00   8.235509872437e+00   8.235767364502e+00   8.236263275146e+00   8.236989021301e+00 
  8.237919807434e+00   8.239023208618e+00   8.240182876587e+00   8.241320610046e+00   8.242353439331e+00   8.243212699890e+00   8.243929862976e+00   8.244673728943e+00   8.245656013489e+00 
  8.246994972229e+00   8.248604774475e+00   8.250315666199e+00   8.251549720764e+00   8.252760887146e+00   0.000000000000e+00   0.000000000000e+00   7.687559604645e+00   7.687672138214e+00 
  7.687887668610e+00   7.688303947449e+00   7.688967227936e+00   7.689865589142e+00   7.690853595734e+00   7.691863059998e+00   7.692793369293e+00   7.693499088287e+00   7.693999767303e+00 
  7.694540977478e+00   7.695463180542e+00   7.696951389313e+00   7.698881149292e+00   7.701010227203e+00   7.702546119690e+00   7.704168319702e+00   0.000000000000e+00   0.000000000000e+00 
  7.018749713898e+00   7.018230438232e+00   7.017347335815e+00   7.016658782959e+00   7.016379356384e+00   7.016439914703e+00   7.016647338867e+00   7.016977787018e+00   7.017291545868e+00 
  7.017342567444e+00   7.017159461975e+00   7.017086505890e+00   7.017625808716e+00   7.019014835358e+00   7.021049499512e+00   7.023431301117e+00   7.025092601776e+00   7.027257442474e+00 
  0.000000000000e+00   0.000000000000e+00   6.152767181396e+00   6.152434349060e+00   6.151902198792e+00   6.152057647705e+00   6.152976512909e+00   6.153980731964e+00   6.154495239258e+00 
  6.154914855957e+00   6.155218601227e+00   6.154767513275e+00   6.153745651245e+00   6.153078556061e+00   6.153434753418e+00   6.154958248138e+00   6.157128334045e+00   6.159502506256e+00 
  6.160799503326e+00   6.163555145264e+00   0.000000000000e+00   0.000000000000e+00   4.973944187164e+00   4.972879886627e+00   4.971994400024e+00   4.971363067627e+00   4.971030712128e+00 
  4.971297740936e+00   4.971125125885e+00   4.970935821533e+00   4.970275878906e+00   4.969050407410e+00   4.967831134796e+00   4.966495990753e+00   4.966631889343e+00   4.968221664429e+00 
  4.970386505127e+00   4.972784042358e+00   4.973889827728e+00   4.977522373199e+00   0.000000000000e+00   0.000000000000e+00   3.511767625809e+00   3.508312463760e+00   3.507578134537e+00 
  3.507060527802e+00   3.505096197128e+00   3.503811597824e+00   3.500989675522e+00   3.497678518295e+00   3.499825477600e+00   3.499587297440e+00   3.497086048126e+00   3.496200323105e+00 
  3.496750354767e+00   3.498148918152e+00   3.501815080643e+00   3.504012346268e+00   3.502960205078e+00   3.506432771683e+00   0.000000000000e+00   0.000000000000e+00   1.728577017784e+00 
  1.726326227188e+00   1.728896141052e+00   1.726173877716e+00   1.720016479492e+00   1.721064329147e+00   1.722434759140e+00   1.720804810524e+00   1.719653606415e+00   1.718889236450e+00 
  1.720785498619e+00   1.718177676201e+00   1.718081831932e+00   1.719921350479e+00   1.722868561745e+00   1.725003719330e+00   1.724917411804e+00   1.728234171867e+00   0.000000000000e+00 
  0.000000000000e+00   0.000000000000e+00   0.000000000000e+00   0.000000000000e+00   0.000000000000e+00   0.000000000000e+00   0.000000000000e+00   0.000000000000e+00   0.000000000000e+00 
  0.000000000000e+00   0.000000000000e+00   0.000000000000e+00   0.000000000000e+00   0.000000000000e+00   0.000000000000e+00   0.000000000000e+00   0.000000000000e+00   0.000000000000e+00 
  0.000000000000e+00   0.000000000000e+00   0.000000000000e+00   0.000000000000e+00   0.000000000000e+00   0.000000000000e+00   0.000000000000e+00   0.000000000000e+00   0.000000000000e+00 
  0.000000000000e+00   0.000000000000e+00   0.000000000000e+00   0.000000000000e+00   0.000000000000e+00   0.000000000000e+00   0.000000000000e+00   0.000000000000e+00   0.000000000000e+00 
  0.000000000000e+00   0.000000000000e+00   0.000000000000e+00   0.000000000000e+00   0.000000000000e+00   0.000000000000e+00   0.000000000000e+00   0.000000000000e+00   0.000000000000e+00 
  0.000000000000e+00   0.000000000000e+00   0.000000000000e+00   0.000000000000e+00   0.000000000000e+00   0.000000000000e+00   0.000000000000e+00   0.000000000000e+00   0.000000000000e+00 
  0.000000000000e+00   0.000000000000e+00   0.000000000000e+00   0.000000000000e+00   0.000000000000e+00   0.000000000000e+00   0.000000000000e+00   0.000000000000e+00   0.000000000000e+00 
  0.000000000000e+00   0.000000000000e+00   0.000000000000e+00   0.000000000000e+00   0.000000000000e+00   0.000000000000e+00   0.000000000000e+00   0.000000000000e+00   0.000000000000e+00 
  0.000000000000e+00   0.000000000000e+00   0.000000000000e+00   0.000000000000e+00   0.000000000000e+00   0.000000000000e+00   0.000000000000e+00   0.000000000000e+00   0.000000000000e+00 
  0.000000000000e+00   0.000000000000e+00   0.000000000000e+00   0.000000000000e+00   0.000000000000e+00   0.000000000000e+00   0.000000000000e+00   0.000000000000e+00   0.000000000000e+00 
  0.000000000000e+00   0.000000000000e+00   0.000000000000e+00   0.000000000000e+00   0.000000000000e+00   0.000000000000e+00   0.000000000000e+00   0.000000000000e+00   0.000000000000e+00 
  0.000000000000e+00   0.000000000000e+00   0.000000000000e+00   0.000000000000e+00   0.000000000000e+00   0.000000000000e+00   0.000000000000e+00   0.000000000000e+00   0.000000000000e+00 
  0.000000000000e+00   0.000000000000e+00   0.000000000000e+00   0.000000000000e+00   0.000000000000e+00   0.000000000000e+00   0.000000000000e+00   0.000000000000e+00   0.000000000000e+00 
  0.000000000000e+00   0.000000000000e+00   0.000000000000e+00   0.000000000000e+00   0.000000000000e+00   0.000000000000e+00   0.000000000000e+00   0.000000000000e+00   0.000000000000e+00 
  0.000000000000e+00   0.000000000000e+00   0.000000000000e+00   0.000000000000e+00   0.000000000000e+00   0.000000000000e+00   0.000000000000e+00   0.000000000000e+00   0.000000000000e+00 
  0.000000000000e+00   0.000000000000e+00   0.000000000000e+00   0.000000000000e+00   0.000000000000e+00   0.000000000000e+00   8.573836326599e+00   8.573964118958e+00   8.574211120605e+00 
  8.574562072754e+00   8.574996948242e+00   8.575492858887e+00   8.576030731201e+00   8.576591491699e+00   8.577163696289e+00   8.577740669250e+00   8.578321456909e+00   8.578906059265e+00 
  8.579490661621e+00   8.580065727234e+00   8.580595970154e+00   8.581070899963e+00   8.581353187561e+00   8.581693649292e+00   0.000000000000e+00   0.000000000000e+00   8.522959709167e+00 
  8.523094177246e+00   8.523352622986e+00   8.523719787598e+00   8.524171829224e+00   8.524684906006e+00   8.525237083435e+00   8.525810241699e+00   8.526391029358e+00   8.526972770691e+00 
  8.527557373047e+00   8.528151512146e+00   8.528755187988e+00   8.529362678528e+00   8.529936790466e+00   8.530459403992e+00   8.530781745911e+00   8.531146049500e+00   0.000000000000e+00 
  0.000000000000e+00   8.420924186707e+00   8.421051979065e+00   8.421296119690e+00   8.421641349792e+00   8.422066688538e+00   8.422547340393e+00   8.423063278198e+00   8.423598289490e+00 
  8.424139022827e+00   8.424681663513e+00   8.425230026245e+00   8.425803184509e+00   8.426415443420e+00   8.427064895630e+00   8.427711486816e+00   8.428320884705e+00   8.428717613220e+00 
  8.429137229919e+00   0.000000000000e+00   0.000000000000e+00   8.235025405884e+00   8.235184669495e+00   8.235490798950e+00   8.235921859741e+00   8.236445426941e+00   8.237026214600e+00 
  8.237636566162e+00   8.238256454468e+00   8.238867759705e+00   8.239459037781e+00   8.240041732788e+00   8.240656852722e+00   8.241348266602e+00   8.242132186890e+00   8.242959976196e+00 
  8.243771553040e+00   8.244332313538e+00   8.244856834412e+00   0.000000000000e+00   0.000000000000e+00   8.040405273438e+00   8.040555000305e+00   8.040840148926e+00   8.041243553162e+00 
  8.041730880737e+00   8.042263031006e+00   8.042818069458e+00   8.043386459351e+00   8.043942451477e+00   8.044458389282e+00   8.044948577881e+00   8.045495033264e+00   8.046190261841e+00 
  8.047084808350e+00   8.048119544983e+00   8.049192428589e+00   8.049975395203e+00   8.050662994385e+00   0.000000000000e+00   0.000000000000e+00   7.668877124786e+00   7.669063091278e+00 
  7.669412136078e+00   7.669913768768e+00   7.670523643494e+00   7.671171188354e+00   7.671829700470e+00   7.672500133514e+00   7.673141956329e+00   7.673680305481e+00   7.674128055573e+00 
  7.674629688263e+00   7.675382614136e+00   7.676504611969e+00   7.677926063538e+00   7.679468631744e+00   7.680642127991e+00   7.681614875793e+00   0.000000000000e+00   0.000000000000e+00 