# vtk DataFile Version 2.0
Written using VisIt writer
ASCII
DATASET RECTILINEAR_GRID
DIMENSIONS 20 20 20
X_COORDINATES 20 float
  0.000000000000e+00   1.000000000000e+00   2.000000000000e+00   3.000000000000e+00   4.000000000000e+00   5.000000000000e+00   6.000000000000e+00   7.000000000000e+00   8.000000000000e+00 
  9.000000000000e+00   1.000000000000e+01   1.100000000000e+01   1.200000000000e+01   1.300000000000e+01   1.400000000000e+01   1.500000000000e+01   1.600000000000e+01   1.700000000000e+01 
  1.800000000000e+01   1.900000000000e+01 
Y_COORDINATES 20 float
  0.000000000000e+00   1.000000000000e+00   2.000000000000e+00   3.000000000000e+00   4.000000000000e+00   5.000000000000e+00   6.000000000000e+00   7.000000000000e+00   8.000000000000e+00 
  9.000000000000e+00   1.000000000000e+01   1.100000000000e+01   1.200000000000e+01   1.300000000000e+01   1.400000000000e+01   1.500000000000e+01   1.600000000000e+01   1.700000000000e+01 
  1.800000000000e+01   1.900000000000e+01 
Z_COORDINATES 20 float
  0.000000000000e+00   1.000000000000e+00   2.000000000000e+00   3.000000000000e+00   4.000000000000e+00   5.000000000000e+00   6.000000000000e+00   7.000000000000e+00   8.000000000000e+00 
  9.000000000000e+00   1.000000000000e+01   1.100000000000e+01   1.200000000000e+01   1.300000000000e+01   1.400000000000e+01   1.500000000000e+01   1.600000000000e+01   1.700000000000e+01 
  1.800000000000e+01   1.900000000000e+01 
CELL_DATA 6859
POINT_DATA 8000
SCALARS pressure float
LOOKUP_TABLE default
  0.000000000000e+00   0.000000000000e+00   0.000000000000e+00   0.000000000000e+00   0.000000000000e+00   0.000000000000e+00   0.000000000000e+00   0.000000000000e+00   0.000000000000e+00 
  0.000000000000e+00   0.000000000000e+00   0.000000000000e+00   0.000000000000e+00   0.000000000000e+00   0.000000000000e+00   0.000000000000e+00   0.000000000000e+00   0.000000000000e+00 
  0.000000000000e+00   0.000000000000e+00   0.000000000000e+00   0.000000000000e+00   0.000000000000e+00   0.000000000000e+00   0.000000000000e+00   0.000000000000e+00   0.000000000000e+00 
  0.000000000000e+00   0.000000000000e+00   0.000000000000e+00   0.000000000000e+00   0.000000000000e+00   0.000000000000e+00   0.000000000000e+00   0.000000000000e+00   0.000000000000e+00 
  0.000000000000e+00   0.000000000000e+00   0.000000000000e+00   0.000000000000e+00   0.000000000000e+00   0.000000000000e+00   0.000000000000e+00   0.000000000000e+00   0.000000000000e+00 
  0.000000000000e+00   0.000000000000e+00   0.000000000000e+00   0.000000000000e+00   0.000000000000e+00   0.000000000000e+00   0.000000000000e+00   0.000000000000e+00   0.000000000000e+00 
  0.000000000000e+00   0.000000000000e+00   0.000000000000e+00   0.000000000000e+00   0.000000000000e+00   0.000000000000e+00   0.000000000000e+00   0.000000000000e+00   0.000000000000e+00 
  0.000000000000e+00   0.000000000000e+00   0.000000000000e+00   0.000000000000e+00   0.000000000000e+00   0.000000000000e+00   0.000000000000e+00   0.000000000000e+00   0.000000000000e+00 
  0.000000000000e+00   0.000000000000e+00   0.000000000000e+00   0.000000000000e+00   0.000000000000e+00   0.000000000000e+00   0.000000000000e+00   0.000000000000e+00   0.000000000000e+00 
  0.000000000000e+00   0.000000000000e+00   0.000000000000e+00   0.000000000000e+00   0.000000000000e+00   0.000000000000e+00   0.000000000000e+00   0.000000000000e+00   0.000000000000e+00 
  0.000000000000e+00   0.000000000000e+00   0.000000000000e+00   0.000000000000e+00   0.000000000000e+00   0.000000000000e+00   0.000000000000e+00   0.000000000000e+00   0.000000000000e+00 
  0.000000000000e+00   0.000000000000e+00   0.000000000000e+00   0.000000000000e+00   0.000000000000e+00   0.000000000000e+00   0.000000000000e+00   0.000000000000e+00   0.000000000000e+00 
  0.000000000000e+00   0.000000000000e+00   0.000000000000e+00   0.000000000000e+00   0.000000000000e+00   0.000000000000e+00   0.000000000000e+00   0.000000000000e+00   0.000000000000e+00 
  0.000000000000e+00   0.000000000000e+00   0.000000000000e+00   0.000000000000e+00   0.000000000000e+00   0.000000000000e+00   0.000000000000e+00   0.000000000000e+00   0.000000000000e+00 
  0.000000000000e+00   0.000000000000e+00   0.000000000000e+00   0.000000000000e+00   0.000000000000e+00   0.000000000000e+00   0.000000000000e+00   0.000000000000e+00   0.000000000000e+00 
  0.000000000000e+00   0.000000000000e+00   0.000000000000e+00   0.000000000000e+00   0.000000000000e+00   0.000000000000e+00   0.000000000000e+00   0.000000000000e+00   0.000000000000e+00 
  0.000000000000e+00   0.000000000000e+00   0.000000000000e+00   0.000000000000e+00   0.000000000000e+00   0.000000000000e+00   0.000000000000e+00   0.000000000000e+00   0.000000000000e+00 
  0.000000000000e+00   0.000000000000e+00   0.000000000000e+00   0.000000000000e+00   0.000000000000e+00   0.000000000000e+00   0.000000000000e+00   0.000000000000e+00   0.000000000000e+00 
  0.000000000000e+00   0.000000000000e+00   0.000000000000e+00   0.000000000000e+00   0.000000000000e+00   0.000000000000e+00   0.000000000000e+00   0.000000000000e+00   0.000000000000e+00 
  0.000000000000e+00   0.000000000000e+00   0.000000000000e+00   0.000000000000e+00   0.000000000000e+00   0.000000000000e+00   0.000000000000e+00   0.000000000000e+00   0.000000000000e+00 
  0.000000000000e+00   0.000000000000e+00   0.000000000000e+00   0.000000000000e+00   0.000000000000e+00   0.000000000000e+00   0.000000000000e+00   0.000000000000e+00   0.000000000000e+00 
  0.000000000000e+00   0.000000000000e+00   0.000000000000e+00   0.000000000000e+00   0.000000000000e+00   0.000000000000e+00   0.000000000000e+00   0.000000000000e+00   0.000000000000e+00 
  0.000000000000e+00   0.000000000000e+00   0.000000000000e+00   0.000000000000e+00   0.000000000000e+00   0.000000000000e+00   0.000000000000e+00   0.000000000000e+00   0.000000000000e+00 
  0.000000000000e+00   0.000000000000e+00   0.000000000000e+00   0.000000000000e+00   0.000000000000e+00   0.000000000000e+00   0.000000000000e+00   0.000000000000e+00   0.000000000000e+00 
  0.000000000000e+00   0.000000000000e+00   0.000000000000e+00   0.000000000000e+00   0.000000000000e+00   0.000000000000e+00   0.000000000000e+00   0.000000000000e+00   0.000000000000e+00 
  0.000000000000e+00   0.000000000000e+00   0.000000000000e+00   0.000000000000e+00   0.000000000000e+00   0.000000000000e+00   0.000000000000e+00   0.000000000000e+00   0.000000000000e+00 
  0.000000000000e+00   0.000000000000e+00   0.000000000000e+00   0.000000000000e+00   0.000000000000e+00   0.000000000000e+00   0.000000000000e+00   0.000000000000e+00   0.000000000000e+00 
  0.000000000000e+00   0.000000000000e+00   0.000000000000e+00   0.000000000000e+00   0.000000000000e+00   0.000000000000e+00   0.000000000000e+00   0.000000000000e+00   0.000000000000e+00 
  0.000000000000e+00   0.000000000000e+00   0.000000000000e+00   0.000000000000e+00   0.000000000000e+00   0.000000000000e+00   0.000000000000e+00   0.000000000000e+00   0.000000000000e+00 
  0.000000000000e+00   0.000000000000e+00   0.000000000000e+00   0.000000000000e+00   0.000000000000e+00   0.000000000000e+00   0.000000000000e+00   0.000000000000e+00   0.000000000000e+00 
  0.000000000000e+00   0.000000000000e+00   0.000000000000e+00   0.000000000000e+00   0.000000000000e+00   0.000000000000e+00   0.000000000000e+00   0.000000000000e+00   0.000000000000e+00 
  0.000000000000e+00   0.000000000000e+00   0.000000000000e+00   0.000000000000e+00   0.000000000000e+00   0.000000000000e+00   0.000000000000e+00   0.000000000000e+00   0.000000000000e+00 
  0.000000000000e+00   0.000000000000e+00   0.000000000000e+00   0.000000000000e+00   0.000000000000e+00   0.000000000000e+00   0.000000000000e+00   0.000000000000e+00   0.000000000000e+00 
  0.000000000000e+00   0.000000000000e+00   0.000000000000e+00   0.000000000000e+00   0.000000000000e+00   0.000000000000e+00   0.000000000000e+00   0.000000000000e+00   0.000000000000e+00 
  0.000000000000e+00   0.000000000000e+00   0.000000000000e+00   0.000000000000e+00   0.000000000000e+00   0.000000000000e+00   0.000000000000e+00   0.000000000000e+00   0.000000000000e+00 
  0.000000000000e+00   0.000000000000e+00   0.000000000000e+00   0.000000000000e+00   0.000000000000e+00   0.000000000000e+00   0.000000000000e+00   0.000000000000e+00   0.000000000000e+00 
  0.000000000000e+00   0.000000000000e+00   0.000000000000e+00   0.000000000000e+00   0.000000000000e+00   0.000000000000e+00   0.000000000000e+00   0.000000000000e+00   0.000000000000e+00 
  0.000000000000e+00   0.000000000000e+00   0.000000000000e+00   0.000000000000e+00   0.000000000000e+00   0.000000000000e+00   0.000000000000e+00   0.000000000000e+00   0.000000000000e+00 
  0.000000000000e+00   0.000000000000e+00   0.000000000000e+00   0.000000000000e+00   0.000000000000e+00   0.000000000000e+00   0.000000000000e+00   0.000000000000e+00   0.000000000000e+00 
  0.000000000000e+00   0.000000000000e+00   0.000000000000e+00   0.000000000000e+00   0.000000000000e+00   0.000000000000e+00   0.000000000000e+00   0.000000000000e+00   0.000000000000e+00 
  0.000000000000e+00   0.000000000000e+00   0.000000000000e+00   0.000000000000e+00   0.000000000000e+00   0.000000000000e+00   0.000000000000e+00   0.000000000000e+00   0.000000000000e+00 
  0.000000000000e+00   0.000000000000e+00   0.000000000000e+00   0.000000000000e+00   0.000000000000e+00   0.000000000000e+00   0.000000000000e+00   0.000000000000e+00   0.000000000000e+00 
  0.000000000000e+00   0.000000000000e+00   0.000000000000e+00   0.000000000000e+00   0.000000000000e+00   0.000000000000e+00   0.000000000000e+00   0.000000000000e+00   0.000000000000e+00 
  0.000000000000e+00   0.000000000000e+00   0.000000000000e+00   0.000000000000e+00   0.000000000000e+00   0.000000000000e+00   0.000000000000e+00   0.000000000000e+00   0.000000000000e+00 
  0.000000000000e+00   0.000000000000e+00   0.000000000000e+00   0.000000000000e+00   0.000000000000e+00   0.000000000000e+00   0.000000000000e+00   0.000000000000e+00   0.000000000000e+00 
  0.000000000000e+00   0.000000000000e+00   0.000000000000e+00   0.000000000000e+00   0.000000000000e+00   0.000000000000e+00   0.000000000000e+00   0.000000000000e+00   0.000000000000e+00 
  0.000000000000e+00   0.000000000000e+00   0.000000000000e+00   0.000000000000e+00   0.000000000000e+00   0.000000000000e+00   0.000000000000e+00   3.966968059540e+00   3.074648857117e+00 
  2.814214229584e+00   2.634363889694e+00   2.451052188873e+00   2.306957244873e+00   2.215105772018e+00   2.139795780182e+00   2.098596811295e+00   2.072900056839e+00   2.044082880020e+00 
  2.039191007614e+00   2.002973318100e+00   2.006676912308e+00   1.979675531387e+00   1.979305624962e+00   1.978054881096e+00   1.989006996155e+00   0.000000000000e+00   0.000000000000e+00 
  4.405620574951e+00   2.971379518509e+00   2.896003723145e+00   2.621398687363e+00   2.550947904587e+00   2.429516792297e+00   2.320998191833e+00   2.255286216736e+00   2.153488159180e+00 
  2.095374822617e+00   2.058657646179e+00   1.989246726036e+00   1.991184353828e+00   1.948924422264e+00   1.949050903320e+00   1.943377852440e+00   1.932060241699e+00   1.944854974747e+00 
  0.000000000000e+00   0.000000000000e+00   3.501814603806e+00   2.849265575409e+00   2.625395059586e+00   2.386977910995e+00   2.242355585098e+00   2.150475740433e+00   2.135097503662e+00 
  2.074962615967e+00   2.008382320404e+00   2.043065786362e+00   2.059743404388e+00   2.052707433701e+00   2.036738634109e+00   2.005753755569e+00   1.998209714890e+00   2.000795364380e+00 
  2.004983186722e+00   2.022768974304e+00   0.000000000000e+00   0.000000000000e+00   1.943078875542e+00   1.828840851784e+00   1.992179512978e+00   1.663848638535e+00   1.364324569702e+00 
  1.287560105324e+00   1.337158083916e+00   1.745102643967e+00   1.843152761459e+00   1.742051362991e+00   1.659402370453e+00   1.599341511726e+00   1.567655324936e+00   1.621342301369e+00 
  1.692054152489e+00   1.735984325409e+00   1.750906586647e+00   1.759599804878e+00   0.000000000000e+00   0.000000000000e+00   2.807315587997e+00   2.283087253571e+00   7.309587001801e+00 
  7.392590999603e+00   9.762984275818e+00   8.735493659973e+00   5.619406700134e+00   3.607243061066e+00   4.302791595459e+00   3.949557781219e+00   4.156623363495e+00   4.112966537476e+00 
  4.090625286102e+00   4.039893627167e+00   3.966738462448e+00   3.906298875809e+00   3.863218545914e+00   3.838397264481e+00   0.000000000000e+00   0.000000000000e+00   9.672505259514e-01 
  1.507985591888e+00   2.200762748718e+00   2.338628053665e+00   2.393072605133e+00   2.382328510284e+00   2.182346343994e+00   1.709488034248e+00   1.621960163116e+00   2.008481740952e+00 
  2.384020566940e+00   2.304610490799e+00   2.221842288971e+00   2.165000677109e+00   2.092877149582e+00   2.095748662949e+00   2.083214282990e+00   2.071534633636e+00   0.000000000000e+00 
  0.000000000000e+00   1.259932875633e+00   1.588993310928e+00   1.984141349792e+00   2.164083003998e+00   2.262098312378e+00   2.254525899887e+00   2.112431049347e+00   1.689521431923e+00 
  1.628718852997e+00   1.714449167252e+00   1.817766785622e+00   1.723326921463e+00   1.630938291550e+00   1.572635769844e+00   1.523397445679e+00   1.509531617165e+00   1.495419621468e+00 
  1.487330794334e+00   0.000000000000e+00   0.000000000000e+00   4.100562095642e+00   3.076714038849e+00   3.562094211578e+00   3.498749256134e+00   3.375186681747e+00   3.235771656036e+00 
  3.005130767822e+00   2.891528844833e+00   2.577790021896e+00   1.928880572319e+00   3.805762052536e+00   3.751473426819e+00   3.701031684875e+00   3.594100713730e+00   3.471242904663e+00 
  3.354373931885e+00   3.239892721176e+00   3.173909187317e+00   0.000000000000e+00   0.000000000000e+00   1.546033501625e+00   1.760682225227e+00   2.240360021591e+00   2.834276199341e+00 
  3.256745100021e+00   3.433485507965e+00   3.554629087448e+00   3.654453754425e+00   3.719732046127e+00   3.603425979614e+00   3.468499183655e+00   3.352421283722e+00   3.281339406967e+00 
  3.214188575745e+00   3.139412403107e+00   3.076363801956e+00   3.004198789597e+00   2.955118894577e+00   0.000000000000e+00   0.000000000000e+00   1.512797236443e+00   1.737226486206e+00 
  2.273838281631e+00   3.903244256973e+00   4.902549266815e+00   4.985219955444e+00   5.276817321777e+00   5.952280044556e+00   6.007209777832e+00   5.156268596649e+00   4.557957649231e+00 
  4.252718925476e+00   4.107103824615e+00   3.984480142593e+00   3.711135387421e+00   3.468590259552e+00   3.326007604599e+00   3.271637916565e+00   0.000000000000e+00   0.000000000000e+00 
  4.587308406830e+00   4.267570495605e+00   3.739481210709e+00   5.532451152802e+00   7.579748630524e+00   7.233040332794e+00   7.456212520599e+00   8.746469497681e+00   9.155026435852e+00 
  7.597154140472e+00   6.299128532410e+00   5.804321289062e+00   5.723382472992e+00   5.541399002075e+00   4.727140426636e+00   4.258421897888e+00   3.972709894180e+00   3.801795959473e+00 
  0.000000000000e+00   0.000000000000e+00   3.015724420547e+00   3.226791858673e+00   3.820447683334e+00   5.630000591278e+00   6.747878551483e+00   6.673353672028e+00   6.821806430817e+00 
  7.382585525513e+00   7.414546966553e+00   6.840116024017e+00   6.430883884430e+00   6.418036460876e+00   6.564745903015e+00   6.472777366638e+00   5.815875053406e+00   5.107676029205e+00 
  4.405896663666e+00   4.212992191315e+00   0.000000000000e+00   0.000000000000e+00   4.328484058380e+00   4.491026401520e+00   4.821763992310e+00   5.405297756195e+00   5.830089569092e+00 
  5.961101531982e+00   5.895620822906e+00   5.458766937256e+00   4.602433204651e+00   5.440676212311e+00   6.050178050995e+00   6.763230800629e+00   7.479504585266e+00   7.596162319183e+00 
  7.087488651276e+00   5.794822692871e+00   3.735637426376e+00   3.827799320221e+00   0.000000000000e+00   0.000000000000e+00   5.220790863037e+00   5.263056278229e+00   5.499060153961e+00 
  5.759850978851e+00   5.923277854919e+00   5.917401790619e+00   5.570146083832e+00   4.339164257050e+00   4.884827613831e+00   4.628177165985e+00   6.429284095764e+00   7.966526985168e+00 
  9.751286506653e+00   1.012307643890e+01   9.318990707397e+00   6.873538970947e+00   3.170607805252e+00   3.341375827789e+00   0.000000000000e+00   0.000000000000e+00   6.040745735168e+00 
  5.968223094940e+00   6.222732543945e+00   6.343868732452e+00   6.166854858398e+00   6.090255260468e+00   5.878782272339e+00   5.346208572388e+00   4.520573616028e+00   5.626492977142e+00 
  6.576680183411e+00   7.482934951782e+00   8.425728797913e+00   8.625247001648e+00   8.100682258606e+00   6.766121864319e+00   4.661884307861e+00   4.688549995422e+00   0.000000000000e+00 
  0.000000000000e+00   6.233237266541e+00   6.191768646240e+00   6.443899631500e+00   6.486940383911e+00   6.427355766296e+00   6.402288913727e+00   6.298051357269e+00   6.124209403992e+00 
  5.985858917236e+00   6.340886592865e+00   6.806632518768e+00   7.279525279999e+00   7.649085044861e+00   7.703811168671e+00   7.393836975098e+00   6.744072914124e+00   6.012335300446e+00 
  5.704906463623e+00   0.000000000000e+00   0.000000000000e+00   6.645751953125e+00   6.629229545593e+00   6.630750656128e+00   6.630244731903e+00   6.637953758240e+00   6.659369945526e+00 
  6.620195388794e+00   6.618724346161e+00   6.603234291077e+00   6.718824386597e+00   6.927122116089e+00   7.211462020874e+00   7.331792831421e+00   7.365730762482e+00   7.159278869629e+00 
  6.820404052734e+00   6.449463367462e+00   6.229643821716e+00   0.000000000000e+00   0.000000000000e+00   6.932457923889e+00   6.865818977356e+00   7.023062229156e+00   7.134497165680e+00 
  7.135892391205e+00   7.045662403107e+00   6.981352329254e+00   6.901439189911e+00   6.993582725525e+00   7.165950298309e+00   7.340172767639e+00   7.404407024384e+00   7.511687278748e+00 
  7.431626319885e+00   7.298417091370e+00   7.060084342957e+00   6.811075687408e+00   6.654525756836e+00   0.000000000000e+00   0.000000000000e+00   0.000000000000e+00   0.000000000000e+00 
  0.000000000000e+00   0.000000000000e+00   0.000000000000e+00   0.000000000000e+00   0.000000000000e+00   0.000000000000e+00   0.000000000000e+00   0.000000000000e+00   0.000000000000e+00 
  0.000000000000e+00   0.000000000000e+00   0.000000000000e+00   0.000000000000e+00   0.000000000000e+00   0.000000000000e+00   0.000000000000e+00   0.000000000000e+00   0.000000000000e+00 
  0.000000000000e+00   0.000000000000e+00   0.000000000000e+00   0.000000000000e+00   0.000000000000e+00   0.000000000000e+00   0.000000000000e+00   0.000000000000e+00   0.000000000000e+00 
  0.000000000000e+00   0.000000000000e+00   0.000000000000e+00   0.000000000000e+00   0.000000000000e+00   0.000000000000e+00   0.000000000000e+00   0.000000000000e+00   0.000000000000e+00 
  0.000000000000e+00   0.000000000000e+00   3.531515598297e+00   2.088943958282e+00   2.007432222366e+00   1.676667094231e+00   1.543430209160e+00   1.402749061584e+00   1.311023831367e+00 
  1.255761265755e+00   1.209513902664e+00   1.148891806602e+00   1.102205753326e+00   1.085230946541e+00   1.072419762611e+00   1.066920518875e+00   1.059308171272e+00   1.067007303238e+00 
  1.063815236092e+00   1.065763235092e+00   0.000000000000e+00   0.000000000000e+00   4.397073745728e+00   3.098107099533e+00   1.992578625679e+00   1.136502861977e+00   3.275658369064e+00 
  3.500505208969e+00   3.899302721024e+00   4.561728000641e+00   5.587568759918e+00   1.866200089455e+00   2.367446660995e+00   2.307057142258e+00   2.362973451614e+00   2.448964357376e+00 
  2.556636810303e+00   2.808560609818e+00   2.881999254227e+00   2.888765335083e+00   0.000000000000e+00   0.000000000000e+00   3.284175157547e+00   2.176089525223e+00   2.135772943497e+00 
  1.651272535324e+00   1.448701143265e+00   1.319066762924e+00   1.272868990898e+00   1.265894889832e+00   1.301708221436e+00   1.346911072731e+00   1.279859304428e+00   1.219643592834e+00 
  1.206141114235e+00   1.189324855804e+00   1.214959144592e+00   1.301122426987e+00   1.330446481705e+00   1.339958071709e+00   0.000000000000e+00   0.000000000000e+00   1.937917947769e+00 
  1.797973513603e+00   1.839025020599e+00   1.562635064125e+00   1.321115612984e+00   1.224490523338e+00   1.210806250572e+00   1.303846359253e+00   1.377249002457e+00   1.412541031837e+00 
  1.404076814651e+00   1.336544156075e+00   1.297956466675e+00   1.322514533997e+00   1.390551567078e+00   1.450186133385e+00   1.470666885376e+00   1.480067253113e+00   0.000000000000e+00 
  0.000000000000e+00   6.635270118713e-01   1.024027228355e+00   1.431999802589e+00   1.363877654076e+00   1.223672866821e+00   1.218144416809e+00   1.166446208954e+00   9.473992586136e-01 
  9.644901156425e-01   1.325738668442e+00   1.628665447235e+00   1.547591924667e+00   1.471236109734e+00   1.430220007896e+00   1.378042101860e+00   1.392187952995e+00   1.396643042564e+00 
  1.396011114120e+00   0.000000000000e+00   0.000000000000e+00   4.988592147827e+00   1.527668833733e+00   2.291208744049e+00   2.775369644165e+00   3.132879495621e+00   3.277937650681e+00 
  2.584894895554e+00   1.580493569374e+00   1.744463562965e+00   1.528591990471e+00   2.116578817368e+00   1.875867962837e+00   1.736712932587e+00   1.636431097984e+00   1.482927799225e+00 
  1.500031471252e+00   1.480939984322e+00   1.460330843925e+00   0.000000000000e+00   0.000000000000e+00   1.125028729439e+00   1.591900706291e+00   2.042461395264e+00   2.347234010696e+00 
  2.554731130600e+00   2.631759166718e+00   2.349173307419e+00   1.574495911598e+00   1.425178289413e+00   1.786015272141e+00   2.028013944626e+00   1.914160609245e+00   1.816605925560e+00 
  1.744478464127e+00   1.661904931068e+00   1.650220751762e+00   1.625532507896e+00   1.607144951820e+00   0.000000000000e+00   0.000000000000e+00   1.006164073944e+00   1.200471520424e+00 
  1.496497273445e+00   1.718496561050e+00   1.841191530228e+00   1.890726685524e+00   1.839067816734e+00   1.730370998383e+00   1.687548160553e+00   1.767348885536e+00   1.857810616493e+00 
  1.851365447044e+00   1.806678891182e+00   1.765980005264e+00   1.727711558342e+00   1.690600991249e+00   1.663940072060e+00   1.639036893845e+00   0.000000000000e+00   0.000000000000e+00 
  1.322244763374e+00   1.464592814445e+00   1.790284276009e+00   2.206035852432e+00   2.531098604202e+00   2.692170143127e+00   2.787735223770e+00   2.864124059677e+00   2.860413074493e+00 
  2.747775316238e+00   2.611827850342e+00   2.498198270798e+00   2.421654939651e+00   2.354785442352e+00   2.282519340515e+00   2.195584774017e+00   2.132128000259e+00   2.091528892517e+00 
  0.000000000000e+00   0.000000000000e+00   1.680083751678e+00   1.860676407814e+00   2.309433698654e+00   3.165585279465e+00   3.752605199814e+00   3.917744398117e+00   4.128932952881e+00 
  4.447560310364e+00   4.439935207367e+00   3.991856336594e+00   3.602533102036e+00   3.393138170242e+00   3.285401582718e+00   3.194721937180e+00   3.052092790604e+00   2.922630548477e+00 
  2.812926769257e+00   2.733313798904e+00   0.000000000000e+00   0.000000000000e+00   1.803572297096e+00   1.964845538139e+00   2.463050127029e+00   4.059396266937e+00   4.998732566833e+00 
  5.031303882599e+00   5.255247116089e+00   5.828509807587e+00   5.922272682190e+00   5.163199424744e+00   4.510417461395e+00   4.228509902954e+00   4.138316154480e+00   4.031672954559e+00 
  3.695776700974e+00   3.427647352219e+00   3.216102838516e+00   3.085673570633e+00   0.000000000000e+00   0.000000000000e+00   2.668918132782e+00   2.835171699524e+00   3.272254705429e+00 
  4.134838104248e+00   4.741974830627e+00   4.889791011810e+00   5.032743930817e+00   5.238017082214e+00   5.223410606384e+00   4.972541809082e+00   4.823875427246e+00   4.852311134338e+00 
  4.922698497772e+00   4.860655784607e+00   4.535053253174e+00   4.085847854614e+00   3.620007514954e+00   3.405506372452e+00   0.000000000000e+00   0.000000000000e+00   3.700139522552e+00 
  3.795222043991e+00   4.070356845856e+00   4.495923995972e+00   4.809429645538e+00   4.899928092957e+00   4.879840850830e+00   4.734790325165e+00   4.465535163879e+00   4.721006393433e+00 
  5.058773517609e+00   5.471791267395e+00   5.870272159576e+00   5.916114807129e+00   5.543656826019e+00   4.753365516663e+00   3.749071598053e+00   3.497561216354e+00   0.000000000000e+00 
  0.000000000000e+00   4.394145488739e+00   4.467869281769e+00   4.615426540375e+00   4.803254604340e+00   4.941407203674e+00   4.958393573761e+00   4.792850017548e+00   4.351946353912e+00 
  3.609732627869e+00   4.555491447449e+00   5.362204551697e+00   6.182883262634e+00   7.019039154053e+00   7.179778099060e+00   6.692617893219e+00   5.504139423370e+00   3.570436477661e+00 
  3.585715055466e+00   0.000000000000e+00   0.000000000000e+00   4.943127632141e+00   4.930026054382e+00   5.049799442291e+00   5.137215137482e+00   5.148234367371e+00   5.145428180695e+00 
  5.032767772675e+00   4.789144039154e+00   4.557501792908e+00   5.025358200073e+00   5.580002784729e+00   6.134034633636e+00   6.606243610382e+00   6.680039405823e+00   6.314464092255e+00 
  5.525902271271e+00   4.536905288696e+00   4.293756008148e+00   0.000000000000e+00   0.000000000000e+00   5.424239158630e+00   5.416887760162e+00   5.488118171692e+00   5.516168594360e+00 
  5.520319461823e+00   5.505517482758e+00   5.445904254913e+00   5.358412742615e+00   5.329791545868e+00   5.543768405914e+00   5.847547054291e+00   6.163422584534e+00   6.399316787720e+00 
  6.411595821381e+00   6.167025566101e+00   5.701957702637e+00   5.220170497894e+00   4.927744865417e+00   0.000000000000e+00   0.000000000000e+00   5.660501956940e+00   5.721480369568e+00 
  5.738104820251e+00   5.761949539185e+00   5.762620925903e+00   5.751654624939e+00   5.738696575165e+00   5.713325977325e+00   5.774795055389e+00   5.876801967621e+00   5.986807823181e+00 
  6.199023246765e+00   6.318375110626e+00   6.299509048462e+00   6.110484600067e+00   5.826590538025e+00   5.562839508057e+00   5.387748241425e+00   0.000000000000e+00   0.000000000000e+00 
  5.993678569794e+00   6.088417053223e+00   6.210198402405e+00   6.208187103271e+00   6.158110618591e+00   6.125765323639e+00   6.080597400665e+00   6.107754707336e+00   6.119645118713e+00 
  6.221881866455e+00   6.387579441071e+00   6.403471469879e+00   6.410621643066e+00   6.369869709015e+00   6.275671958923e+00   6.095334053040e+00   5.874157428741e+00   5.699347972870e+00 
  0.000000000000e+00   0.000000000000e+00   0.000000000000e+00   0.000000000000e+00   0.000000000000e+00   0.000000000000e+00   0.000000000000e+00   0.000000000000e+00   0.000000000000e+00 
  0.000000000000e+00   0.000000000000e+00   0.000000000000e+00   0.000000000000e+00   0.000000000000e+00   0.000000000000e+00   0.000000000000e+00   0.000000000000e+00   0.000000000000e+00 
  0.000000000000e+00   0.000000000000e+00   0.000000000000e+00   0.000000000000e+00   0.000000000000e+00   0.000000000000e+00   0.000000000000e+00   0.000000000000e+00   0.000000000000e+00 
  0.000000000000e+00   0.000000000000e+00   0.000000000000e+00   0.000000000000e+00   0.000000000000e+00   0.000000000000e+00   0.000000000000e+00   0.000000000000e+00   0.000000000000e+00 
  0.000000000000e+00   0.000000000000e+00   0.000000000000e+00   0.000000000000e+00   0.000000000000e+00   0.000000000000e+00   2.350735902786e+00   1.715729117393e+00   1.495615482330e+00 
  1.267580628395e+00   1.104666829109e+00   9.757804870605e-01   8.930115103722e-01   8.449598550797e-01   8.208416104317e-01   8.002738952637e-01   7.633002400398e-01   7.335968017578e-01 
  7.160819172859e-01   7.141821384430e-01   7.312371134758e-01   7.592895030975e-01   7.748953700066e-01   7.785865664482e-01   0.000000000000e+00   0.000000000000e+00   2.805369853973e+00 
  1.668076515198e+00   1.629217624664e+00   1.222935080528e+00   1.073924779892e+00   9.569907784462e-01   8.717520833015e-01   8.157545328140e-01   7.964082956314e-01   7.853800058365e-01 
  6.947191357613e-01   6.340764164925e-01   6.159666180611e-01   6.183337569237e-01   6.476666331291e-01   7.149648070335e-01   7.342294454575e-01   7.343136072159e-01   0.000000000000e+00 
  0.000000000000e+00   2.520144224167e+00   2.143877267838e+00   1.931161522865e+00   1.363393425941e+00   1.006494045258e+00   8.481065630913e-01   7.890010476112e-01   7.908015251160e-01 
  8.839883804321e-01   1.011290788651e+00   8.900446891785e-01   7.859093546867e-01   7.526379823685e-01   7.661468386650e-01   8.673234581947e-01   1.046494245529e+00   1.108696937561e+00 
  1.113990783691e+00   0.000000000000e+00   0.000000000000e+00   1.693058729172e+00   1.621264696121e+00   1.548830270767e+00   1.283646225929e+00   1.080324292183e+00   9.818309545517e-01 
  9.269782304764e-01   9.094294309616e-01   9.552429318428e-01   1.043000340462e+00   1.015349268913e+00   9.519135355949e-01   9.145867824554e-01   9.172710776329e-01   9.671235084534e-01 
  1.054460525513e+00   1.086689472198e+00   1.091998338699e+00   0.000000000000e+00   0.000000000000e+00   1.015158772469e+00   1.158499598503e+00   1.290806055069e+00   1.278650403023e+00 
  1.237265706062e+00   1.192514896393e+00   1.041324734688e+00   7.844271659851e-01   7.257559299469e-01   8.718075156212e-01   9.946101307869e-01   9.442950487137e-01   8.736461400986e-01 
  8.392848968506e-01   8.324793577194e-01   8.489482998848e-01   8.568770885468e-01   8.582691550255e-01   0.000000000000e+00   0.000000000000e+00   8.069946765900e-01   1.196333050728e+00 
  1.521309018135e+00   1.773830771446e+00   1.938952088356e+00   1.955168604851e+00   1.603042364120e+00   8.224980235100e-01   6.718242168427e-01   1.031918883324e+00   1.305577278137e+00 
  1.216039299965e+00   1.106603741646e+00   1.042167901993e+00   9.895734190941e-01   9.831932187080e-01   9.755528569221e-01   9.699159860611e-01   0.000000000000e+00   0.000000000000e+00 