# vtk DataFile Version 2.0
Written using VisIt writer
ASCII
DATASET RECTILINEAR_GRID
DIMENSIONS 20 20 20
X_COORDINATES 20 float
  0.000000000000e+00   1.000000000000e+00   2.000000000000e+00   3.000000000000e+00   4.000000000000e+00   5.000000000000e+00   6.000000000000e+00   7.000000000000e+00   8.000000000000e+00 
  9.000000000000e+00   1.000000000000e+01   1.100000000000e+01   1.200000000000e+01   1.300000000000e+01   1.400000000000e+01   1.500000000000e+01   1.600000000000e+01   1.700000000000e+01 
  1.800000000000e+01   1.900000000000e+01 
Y_COORDINATES 20 float
  0.000000000000e+00   1.000000000000e+00   2.000000000000e+00   3.000000000000e+00   4.000000000000e+00   5.000000000000e+00   6.000000000000e+00   7.000000000000e+00   8.000000000000e+00 
  9.000000000000e+00   1.000000000000e+01   1.100000000000e+01   1.200000000000e+01   1.300000000000e+01   1.400000000000e+01   1.500000000000e+01   1.600000000000e+01   1.700000000000e+01 
  1.800000000000e+01   1.900000000000e+01 
Z_COORDINATES 20 float
  0.000000000000e+00   1.000000000000e+00   2.000000000000e+00   3.000000000000e+00   4.000000000000e+00   5.000000000000e+00   6.000000000000e+00   7.000000000000e+00   8.000000000000e+00 
  9.000000000000e+00   1.000000000000e+01   1.100000000000e+01   1.200000000000e+01   1.300000000000e+01   1.400000000000e+01   1.500000000000e+01   1.600000000000e+01   1.700000000000e+01 
  1.800000000000e+01   1.900000000000e+01 
CELL_DATA 6859
POINT_DATA 8000
SCALARS pressure float
LOOKUP_TABLE default
  0.000000000000e+00   0.000000000000e+00   0.000000000000e+00   0.000000000000e+00   0.000000000000e+00   0.000000000000e+00   0.000000000000e+00   0.000000000000e+00   0.000000000000e+00 
  0.000000000000e+00   0.000000000000e+00   0.000000000000e+00   0.000000000000e+00   0.000000000000e+00   0.000000000000e+00   0.000000000000e+00   0.000000000000e+00   0.000000000000e+00 
  0.000000000000e+00   0.000000000000e+00   0.000000000000e+00   0.000000000000e+00   0.000000000000e+00   0.000000000000e+00   0.000000000000e+00   0.000000000000e+00   0.000000000000e+00 
  0.000000000000e+00   0.000000000000e+00   0.000000000000e+00   0.000000000000e+00   0.000000000000e+00   0.000000000000e+00   0.000000000000e+00   0.000000000000e+00   0.000000000000e+00 
  0.000000000000e+00   0.000000000000e+00   0.000000000000e+00   0.000000000000e+00   0.000000000000e+00   0.000000000000e+00   0.000000000000e+00   0.000000000000e+00   0.000000000000e+00 
  0.000000000000e+00   0.000000000000e+00   0.000000000000e+00   0.000000000000e+00   0.000000000000e+00   0.000000000000e+00   0.000000000000e+00   0.000000000000e+00   0.000000000000e+00 
  0.000000000000e+00   0.000000000000e+00   0.000000000000e+00   0.000000000000e+00   0.000000000000e+00   0.000000000000e+00   0.000000000000e+00   0.000000000000e+00   0.000000000000e+00 
  0.000000000000e+00   0.000000000000e+00   0.000000000000e+00   0.000000000000e+00   0.000000000000e+00   0.000000000000e+00   0.000000000000e+00   0.000000000000e+00   0.000000000000e+00 
  0.000000000000e+00   0.000000000000e+00   0.000000000000e+00   0.000000000000e+00   0.000000000000e+00   0.000000000000e+00   0.000000000000e+00   0.000000000000e+00   0.000000000000e+00 
  0.000000000000e+00   0.000000000000e+00   0.000000000000e+00   0.000000000000e+00   0.000000000000e+00   0.000000000000e+00   0.000000000000e+00   0.000000000000e+00   0.000000000000e+00 
  0.000000000000e+00   0.000000000000e+00   0.000000000000e+00   0.000000000000e+00   0.000000000000e+00   0.000000000000e+00   0.000000000000e+00   0.000000000000e+00   0.000000000000e+00 
  0.000000000000e+00   0.000000000000e+00   0.000000000000e+00   0.000000000000e+00   0.000000000000e+00   0.000000000000e+00   0.000000000000e+00   0.000000000000e+00   0.000000000000e+00 
  0.000000000000e+00   0.000000000000e+00   0.000000000000e+00   0.000000000000e+00   0.000000000000e+00   0.000000000000e+00   0.000000000000e+00   0.000000000000e+00   0.000000000000e+00 
  0.000000000000e+00   0.000000000000e+00   0.000000000000e+00   0.000000000000e+00   0.000000000000e+00   0.000000000000e+00   0.000000000000e+00   0.000000000000e+00   0.000000000000e+00 
  0.000000000000e+00   0.000000000000e+00   0.000000000000e+00   0.000000000000e+00   0.000000000000e+00   0.000000000000e+00   0.000000000000e+00   0.000000000000e+00   0.000000000000e+00 
  0.000000000000e+00   0.000000000000e+00   0.000000000000e+00   0.000000000000e+00   0.000000000000e+00   0.000000000000e+00   0.000000000000e+00   0.000000000000e+00   0.000000000000e+00 
  0.000000000000e+00   0.000000000000e+00   0.000000000000e+00   0.000000000000e+00   0.000000000000e+00   0.000000000000e+00   0.000000000000e+00   0.000000000000e+00   0.000000000000e+00 
  0.000000000000e+00   0.000000000000e+00   0.000000000000e+00   0.000000000000e+00   0.000000000000e+00   0.000000000000e+00   0.000000000000e+00   0.000000000000e+00   0.000000000000e+00 
  0.000000000000e+00   0.000000000000e+00   0.000000000000e+00   0.000000000000e+00   0.000000000000e+00   0.000000000000e+00   0.000000000000e+00   0.000000000000e+00   0.000000000000e+00 
  0.000000000000e+00   0.000000000000e+00   0.000000000000e+00   0.000000000000e+00   0.000000000000e+00   0.000000000000e+00   0.000000000000e+00   0.000000000000e+00   0.000000000000e+00 
  0.000000000000e+00   0.000000000000e+00   0.000000000000e+00   0.000000000000e+00   0.000000000000e+00   0.000000000000e+00   0.000000000000e+00   0.000000000000e+00   0.000000000000e+00 
  0.000000000000e+00   0.000000000000e+00   0.000000000000e+00   0.000000000000e+00   0.000000000000e+00   0.000000000000e+00   0.000000000000e+00   0.000000000000e+00   0.000000000000e+00 
  0.000000000000e+00   0.000000000000e+00   0.000000000000e+00   0.000000000000e+00   0.000000000000e+00   0.000000000000e+00   0.000000000000e+00   0.000000000000e+00   0.000000000000e+00 
  0.000000000000e+00   0.000000000000e+00   0.000000000000e+00   0.000000000000e+00   0.000000000000e+00   0.000000000000e+00   0.000000000000e+00   0.000000000000e+00   0.000000000000e+00 
  0.000000000000e+00   0.000000000000e+00   0.000000000000e+00   0.000000000000e+00   0.000000000000e+00   0.000000000000e+00   0.000000000000e+00   0.000000000000e+00   0.000000000000e+00 
  0.000000000000e+00   0.000000000000e+00   0.000000000000e+00   0.000000000000e+00   0.000000000000e+00   0.000000000000e+00   0.000000000000e+00   0.000000000000e+00   0.000000000000e+00 
  0.000000000000e+00   0.000000000000e+00   0.000000000000e+00   0.000000000000e+00   0.000000000000e+00   0.000000000000e+00   0.000000000000e+00   0.000000000000e+00   0.000000000000e+00 
  0.000000000000e+00   0.000000000000e+00   0.000000000000e+00   0.000000000000e+00   0.000000000000e+00   0.000000000000e+00   0.000000000000e+00   0.000000000000e+00   0.000000000000e+00 
  0.000000000000e+00   0.000000000000e+00   0.000000000000e+00   0.000000000000e+00   0.000000000000e+00   0.000000000000e+00   0.000000000000e+00   0.000000000000e+00   0.000000000000e+00 
  0.000000000000e+00   0.000000000000e+00   0.000000000000e+00   0.000000000000e+00   0.000000000000e+00   0.000000000000e+00   0.000000000000e+00   0.000000000000e+00   0.000000000000e+00 
  0.000000000000e+00   0.000000000000e+00   0.000000000000e+00   0.000000000000e+00   0.000000000000e+00   0.000000000000e+00   0.000000000000e+00   0.000000000000e+00   0.000000000000e+00 
  0.000000000000e+00   0.000000000000e+00   0.000000000000e+00   0.000000000000e+00   0.000000000000e+00   0.000000000000e+00   0.000000000000e+00   0.000000000000e+00   0.000000000000e+00 
  0.000000000000e+00   0.000000000000e+00   0.000000000000e+00   0.000000000000e+00   0.000000000000e+00   0.000000000000e+00   0.000000000000e+00   0.000000000000e+00   0.000000000000e+00 
  0.000000000000e+00   0.000000000000e+00   0.000000000000e+00   0.000000000000e+00   0.000000000000e+00   0.000000000000e+00   0.000000000000e+00   0.000000000000e+00   0.000000000000e+00 
  0.000000000000e+00   0.000000000000e+00   0.000000000000e+00   0.000000000000e+00   0.000000000000e+00   0.000000000000e+00   0.000000000000e+00   0.000000000000e+00   0.000000000000e+00 
  0.000000000000e+00   0.000000000000e+00   0.000000000000e+00   0.000000000000e+00   0.000000000000e+00   0.000000000000e+00   0.000000000000e+00   0.000000000000e+00   0.000000000000e+00 
  0.000000000000e+00   0.000000000000e+00   0.000000000000e+00   0.000000000000e+00   0.000000000000e+00   0.000000000000e+00   0.000000000000e+00   0.000000000000e+00   0.000000000000e+00 
  0.000000000000e+00   0.000000000000e+00   0.000000000000e+00   0.000000000000e+00   0.000000000000e+00   0.000000000000e+00   0.000000000000e+00   0.000000000000e+00   0.000000000000e+00 
  0.000000000000e+00   0.000000000000e+00   0.000000000000e+00   0.000000000000e+00   0.000000000000e+00   0.000000000000e+00   0.000000000000e+00   0.000000000000e+00   0.000000000000e+00 
  0.000000000000e+00   0.000000000000e+00   0.000000000000e+00   0.000000000000e+00   0.000000000000e+00   0.000000000000e+00   0.000000000000e+00   0.000000000000e+00   0.000000000000e+00 
  0.000000000000e+00   0.000000000000e+00   0.000000000000e+00   0.000000000000e+00   0.000000000000e+00   0.000000000000e+00   0.000000000000e+00   0.000000000000e+00   0.000000000000e+00 
  0.000000000000e+00   0.000000000000e+00   0.000000000000e+00   0.000000000000e+00   0.000000000000e+00   0.000000000000e+00   0.000000000000e+00   0.000000000000e+00   0.000000000000e+00 
  0.000000000000e+00   0.000000000000e+00   0.000000000000e+00   0.000000000000e+00   0.000000000000e+00   0.000000000000e+00   0.000000000000e+00   0.000000000000e+00   0.000000000000e+00 
  0.000000000000e+00   0.000000000000e+00   0.000000000000e+00   0.000000000000e+00   0.000000000000e+00   0.000000000000e+00   0.000000000000e+00   0.000000000000e+00   0.000000000000e+00 
  0.000000000000e+00   0.000000000000e+00   0.000000000000e+00   0.000000000000e+00   0.000000000000e+00   0.000000000000e+00   0.000000000000e+00   0.000000000000e+00   0.000000000000e+00 
  0.000000000000e+00   0.000000000000e+00   0.000000000000e+00   0.000000000000e+00   0.000000000000e+00   0.000000000000e+00   0.000000000000e+00   0.000000000000e+00   0.000000000000e+00 
  0.000000000000e+00   0.000000000000e+00   0.000000000000e+00   0.000000000000e+00   0.000000000000e+00   0.000000000000e+00   0.000000000000e+00   1.091149044037e+01   1.091174793243e+01 
  1.091225337982e+01   1.091299629211e+01   1.091395187378e+01   1.091508674622e+01   1.091635417938e+01   1.091769313812e+01   1.091904163361e+01   1.092033481598e+01   1.092151832581e+01 
  1.092254829407e+01   1.092340087891e+01   1.092406845093e+01   1.092455863953e+01   1.092489719391e+01   1.092505073547e+01   1.092537307739e+01   0.000000000000e+00   0.000000000000e+00 
  1.086819839478e+01   1.086851406097e+01   1.086914062500e+01   1.087005805969e+01   1.087122917175e+01   1.087260818481e+01   1.087413120270e+01   1.087572479248e+01   1.087731075287e+01 
  1.087881469727e+01   1.088017177582e+01   1.088133716583e+01   1.088228511810e+01   1.088301277161e+01   1.088353538513e+01   1.088388347626e+01   1.088403320312e+01   1.088434410095e+01 
  0.000000000000e+00   0.000000000000e+00   1.084141826630e+01   1.084175586700e+01   1.084243106842e+01   1.084342575073e+01   1.084470748901e+01   1.084622859955e+01   1.084791755676e+01 
  1.084968948364e+01   1.085145092010e+01   1.085311126709e+01   1.085459136963e+01   1.085583782196e+01   1.085682201385e+01   1.085754489899e+01   1.085803413391e+01   1.085833358765e+01 
  1.085843563080e+01   1.085871601105e+01   0.000000000000e+00   0.000000000000e+00   1.082721328735e+01   1.082749366760e+01   1.082805442810e+01   1.082891178131e+01   1.083006477356e+01 
  1.083148765564e+01   1.083312320709e+01   1.083488082886e+01   1.083665084839e+01   1.083832168579e+01   1.083979225159e+01   1.084099197388e+01   1.084188461304e+01   1.084247589111e+01 
  1.084280681610e+01   1.084294700623e+01   1.084292316437e+01   1.084314346313e+01   0.000000000000e+00   0.000000000000e+00   1.080183982849e+01   1.080214691162e+01   1.080278301239e+01 
  1.080378341675e+01   1.080516910553e+01   1.080692672729e+01   1.080898284912e+01   1.081120872498e+01   1.081344604492e+01   1.081553077698e+01   1.081731987000e+01   1.081871223450e+01 
  1.081966400146e+01   1.082018947601e+01   1.082036495209e+01   1.082030677795e+01   1.082009792328e+01   1.082018756866e+01   0.000000000000e+00   0.000000000000e+00   1.076427555084e+01 
  1.076455593109e+01   1.076516914368e+01   1.076620960236e+01   1.076775264740e+01   1.076981353760e+01   1.077231216431e+01   1.077507114410e+01   1.077786350250e+01   1.078045082092e+01 
  1.078262042999e+01   1.078422355652e+01   1.078519344330e+01   1.078555774689e+01   1.078543663025e+01   1.078501987457e+01   1.078449058533e+01   1.078434085846e+01   0.000000000000e+00 
  0.000000000000e+00   1.066256237030e+01   1.066293525696e+01   1.066380023956e+01   1.066531181335e+01   1.066757869720e+01   1.067058181763e+01   1.067417907715e+01   1.067812919617e+01 
  1.068210411072e+01   1.068574810028e+01   1.068874073029e+01   1.069086074829e+01   1.069201278687e+01   1.069223976135e+01   1.069173240662e+01   1.069079589844e+01   1.068977069855e+01 
  1.068918132782e+01   0.000000000000e+00   0.000000000000e+00   1.049506568909e+01   1.049555778503e+01   1.049678611755e+01   1.049903964996e+01   1.050249958038e+01   1.050712394714e+01 
  1.051265430450e+01   1.051869106293e+01   1.052471733093e+01   1.053017997742e+01   1.053459835052e+01   1.053764057159e+01   1.053916835785e+01   1.053924655914e+01   1.053816127777e+01 
  1.053639030457e+01   1.053454113007e+01   1.053316783905e+01   0.000000000000e+00   0.000000000000e+00   1.029270839691e+01   1.029313468933e+01   1.029447937012e+01   1.029733181000e+01 
  1.030210590363e+01   1.030879974365e+01   1.031699562073e+01   1.032599258423e+01   1.033494663239e+01   1.034299564362e+01   1.034941101074e+01   1.035370254517e+01   1.035565567017e+01 
  1.035534763336e+01   1.035318088531e+01   1.034989356995e+01   1.034654426575e+01   1.034372043610e+01   0.000000000000e+00   0.000000000000e+00   1.009077358246e+01   1.009047317505e+01 
  1.009092140198e+01   1.009339714050e+01   1.009884548187e+01   1.010735702515e+01   1.011829185486e+01   1.013060760498e+01   1.014301109314e+01   1.015412998199e+01   1.016284275055e+01 
  1.016843032837e+01   1.017054843903e+01   1.016921520233e+01   1.016490077972e+01   1.015868949890e+01   1.015243816376e+01   1.014686775208e+01   0.000000000000e+00   0.000000000000e+00 
  9.914743423462e+00   9.912467002869e+00   9.910240173340e+00   9.910899162292e+00   9.916593551636e+00   9.927502632141e+00   9.942443847656e+00   9.959801673889e+00   9.977538108826e+00 
  9.993346214294e+00   1.000545978546e+01   1.001286220551e+01   1.001502227783e+01   1.001180839539e+01   1.000364398956e+01   9.992040634155e+00   9.980209350586e+00   9.969306945801e+00 
  0.000000000000e+00   0.000000000000e+00   9.718974113464e+00   9.711474418640e+00   9.701721191406e+00   9.696612358093e+00   9.701419830322e+00   9.715972900391e+00   9.737529754639e+00 
  9.763253211975e+00   9.789800643921e+00   9.813261032104e+00   9.830890655518e+00   9.841324806213e+00   9.843807220459e+00   9.837892532349e+00   9.823484420776e+00   9.802201271057e+00 
  9.779590606689e+00   9.757746696472e+00   0.000000000000e+00   0.000000000000e+00   9.481527328491e+00   9.463119506836e+00   9.436962127686e+00   9.417559623718e+00   9.416078567505e+00 
  9.429640769958e+00   9.453694343567e+00   9.485313415527e+00   9.519788742065e+00   9.550182342529e+00   9.572237968445e+00   9.584740638733e+00   9.587071418762e+00   9.578110694885e+00 
  9.555643081665e+00   9.519393920898e+00   9.478353500366e+00   9.436140060425e+00   0.000000000000e+00   0.000000000000e+00   9.266549110413e+00   9.240094184875e+00   9.203216552734e+00 
  9.175958633423e+00   9.181162834167e+00   9.207201957703e+00   9.245090484619e+00   9.293431282043e+00   9.347786903381e+00   9.394772529602e+00   9.427277565002e+00   9.446341514587e+00 
  9.452057838440e+00   9.442980766296e+00   9.413166999817e+00   9.357241630554e+00   9.288225173950e+00   9.210532188416e+00   0.000000000000e+00   0.000000000000e+00   1.014123821259e+01 
  1.008524227142e+01   1.000754261017e+01   9.947210311890e+00   9.960877418518e+00   1.001340007782e+01   1.008738231659e+01   1.018642330170e+01   1.030206584930e+01   1.039644718170e+01 
  1.045577907562e+01   1.048993778229e+01   1.050249195099e+01   1.049398231506e+01   1.045172309875e+01   1.035801410675e+01   1.022920703888e+01   1.007645034790e+01   0.000000000000e+00 
  0.000000000000e+00   1.185731601715e+01   1.170438098907e+01   1.152586078644e+01   1.139245223999e+01   1.140571975708e+01   1.148086643219e+01   1.159699153900e+01   1.177695846558e+01 
  1.200093364716e+01   1.216489791870e+01   1.225956058502e+01   1.231192970276e+01   1.233288288116e+01   1.233034992218e+01   1.228649330139e+01   1.216522407532e+01   1.197737979889e+01 
  1.169269847870e+01   0.000000000000e+00   0.000000000000e+00   1.500735950470e+01   1.457899665833e+01   1.424839305878e+01   1.406928539276e+01   1.405434799194e+01   1.416124057770e+01 
  1.441051673889e+01   1.485446834564e+01   1.539335155487e+01   1.570394897461e+01   1.585454463959e+01   1.594214057922e+01   1.598255825043e+01   1.598270130157e+01   1.593971920013e+01 
  1.583505630493e+01   1.568169212341e+01   1.513443374634e+01   0.000000000000e+00   0.000000000000e+00   1.986545562744e+01   1.906658363342e+01   1.848422431946e+01   1.812846565247e+01 
  1.798781013489e+01   1.809377288818e+01   1.843869781494e+01   1.910822486877e+01   2.005559349060e+01   2.057593345642e+01   2.082032966614e+01   2.095227622986e+01   2.100418090820e+01 
  2.100249862671e+01   2.094050788879e+01   2.082270431519e+01   2.072462081909e+01   1.974230384827e+01   0.000000000000e+00   0.000000000000e+00   0.000000000000e+00   0.000000000000e+00 
  0.000000000000e+00   0.000000000000e+00   0.000000000000e+00   0.000000000000e+00   0.000000000000e+00   0.000000000000e+00   0.000000000000e+00   0.000000000000e+00   0.000000000000e+00 
  0.000000000000e+00   0.000000000000e+00   0.000000000000e+00   0.000000000000e+00   0.000000000000e+00   0.000000000000e+00   0.000000000000e+00   0.000000000000e+00   0.000000000000e+00 
  0.000000000000e+00   0.000000000000e+00   0.000000000000e+00   0.000000000000e+00   0.000000000000e+00   0.000000000000e+00   0.000000000000e+00   0.000000000000e+00   0.000000000000e+00 
  0.000000000000e+00   0.000000000000e+00   0.000000000000e+00   0.000000000000e+00   0.000000000000e+00   0.000000000000e+00   0.000000000000e+00   0.000000000000e+00   0.000000000000e+00 
  0.000000000000e+00   0.000000000000e+00   9.866944313049e+00   9.867210388184e+00   9.867735862732e+00   9.868504524231e+00   9.869489669800e+00   9.870653152466e+00   9.871945381165e+00 
  9.873306274414e+00   9.874670982361e+00   9.875975608826e+00   9.877167701721e+00   9.878205299377e+00   9.879064559937e+00   9.879739761353e+00   9.880237579346e+00   9.880582809448e+00 
  9.880741119385e+00   9.881054878235e+00   0.000000000000e+00   0.000000000000e+00   9.819664955139e+00   9.819953918457e+00   9.820525169373e+00   9.821363449097e+00   9.822438240051e+00 
  9.823708534241e+00   9.825118064880e+00   9.826599121094e+00   9.828078269958e+00   9.829485893250e+00   9.830760955811e+00   9.831858634949e+00   9.832754135132e+00   9.833444595337e+00 
  9.833942413330e+00   9.834276199341e+00   9.834420204163e+00   9.834724426270e+00   0.000000000000e+00   0.000000000000e+00   9.789000511169e+00   9.789304733276e+00   9.789912223816e+00 
  9.790809631348e+00   9.791972160339e+00   9.793357849121e+00   9.794905662537e+00   9.796536445618e+00   9.798163414001e+00   9.799700737000e+00   9.801074981689e+00   9.802234649658e+00 
  9.803150177002e+00   9.803824424744e+00   9.804280281067e+00   9.804559707642e+00   9.804655075073e+00   9.804933547974e+00   0.000000000000e+00   0.000000000000e+00   9.785857200623e+00 
  9.786161422729e+00   9.786772727966e+00   9.787696838379e+00   9.788923263550e+00   9.790419578552e+00   9.792120933533e+00   9.793933868408e+00   9.795746803284e+00   9.797449111938e+00 
  9.798943519592e+00   9.800159454346e+00   9.801066398621e+00   9.801670074463e+00   9.802015304565e+00   9.802168846130e+00   9.802156448364e+00   9.802373886108e+00   0.000000000000e+00 
  0.000000000000e+00   9.756833076477e+00   9.757129669189e+00   9.757740974426e+00   9.758702278137e+00   9.760035514832e+00   9.761723518372e+00   9.763697624207e+00   9.765835762024e+00 
  9.767984390259e+00   9.769986152649e+00   9.771702766418e+00   9.773036956787e+00   9.773947715759e+00   9.774451255798e+00   9.774621009827e+00   9.774569511414e+00   9.774376869202e+00 
  9.774476051331e+00   0.000000000000e+00   0.000000000000e+00   9.684291839600e+00   9.684659004211e+00   9.685442924500e+00   9.686711311340e+00   9.688505172729e+00   9.690813064575e+00 
  9.693531036377e+00   9.696475028992e+00   9.699416160583e+00   9.702119827271e+00   9.704380989075e+00   9.706059455872e+00   9.707099914551e+00   9.707541465759e+00   9.707507133484e+00 
  9.707178115845e+00   9.706723213196e+00   9.706597328186e+00   0.000000000000e+00   0.000000000000e+00   9.553050041199e+00   9.553503036499e+00   9.554523468018e+00   9.556240081787e+00 
  9.558727264404e+00   9.561941146851e+00   9.565716743469e+00   9.569795608521e+00   9.573851585388e+00   9.577542304993e+00   9.580566406250e+00   9.582719802856e+00   9.583926200867e+00 
  9.584246635437e+00   9.583875656128e+00   9.583096504211e+00   9.582216262817e+00   9.581701278687e+00   0.000000000000e+00   0.000000000000e+00   9.382533073425e+00   9.382992744446e+00 
  9.384145736694e+00   9.386260986328e+00   9.389513015747e+00   9.393857002258e+00   9.399047851562e+00   9.404695510864e+00   9.410312652588e+00   9.415381431580e+00   9.419452667236e+00 
  9.422227859497e+00   9.423598289490e+00   9.423651695251e+00   9.422674179077e+00   9.421095848083e+00   9.419463157654e+00   9.418251991272e+00   0.000000000000e+00   0.000000000000e+00 
  9.194136619568e+00   9.194357872009e+00   9.195293426514e+00   9.197548866272e+00   9.201554298401e+00   9.207311630249e+00   9.214428901672e+00   9.222277641296e+00   9.230103492737e+00 
  9.237120628357e+00   9.242662429810e+00   9.246296882629e+00   9.247850418091e+00   9.247419357300e+00   9.245388031006e+00   9.242406845093e+00   9.239419937134e+00   9.236912727356e+00 
  0.000000000000e+00   0.000000000000e+00   8.961096763611e+00   8.960575103760e+00   8.960509300232e+00   8.962132453918e+00   8.966368675232e+00   8.973269462585e+00   8.982239723206e+00 
  8.992401123047e+00   9.002680778503e+00   9.011876106262e+00   9.018971443176e+00   9.023345947266e+00   9.024716377258e+00   9.023131370544e+00   9.019028663635e+00   9.013342857361e+00 
  9.007700920105e+00   9.002751350403e+00   0.000000000000e+00   0.000000000000e+00   8.668349266052e+00   8.666072845459e+00   8.663616180420e+00   8.663692474365e+00   8.668417930603e+00 
  8.677579879761e+00   8.689852714539e+00   8.703958511353e+00   8.718420028687e+00   8.731296539307e+00   8.741030693054e+00   8.746801376343e+00   8.748152732849e+00   8.744981765747e+00 
  8.737585067749e+00   8.727169990540e+00   8.716497421265e+00   8.706824302673e+00   0.000000000000e+00   0.000000000000e+00   8.346646308899e+00   8.340509414673e+00   8.332612037659e+00 
  8.328616142273e+00   8.333234786987e+00   8.345500946045e+00   8.362503051758e+00   8.382281303406e+00   8.402763366699e+00   8.420922279358e+00   8.434490203857e+00   8.442277908325e+00 
  8.443606376648e+00   8.438206672668e+00   8.425748825073e+00   8.407057762146e+00   8.386661529541e+00   8.367476463318e+00   0.000000000000e+00   0.000000000000e+00   7.937203884125e+00 
  7.922628402710e+00   7.902216911316e+00   7.888000488281e+00   7.891457557678e+00   7.907030582428e+00   7.929475307465e+00   7.956579208374e+00   7.985363960266e+00   8.010599136353e+00 
  8.029336929321e+00   8.039960861206e+00   8.041745185852e+00   8.034400939941e+00   8.015196800232e+00   7.982553958893e+00   7.943717002869e+00   7.905231475830e+00   0.000000000000e+00 
  0.000000000000e+00   7.708770751953e+00   7.682882785797e+00   7.644365787506e+00   7.614116668701e+00   7.627358436584e+00   7.654792785645e+00   7.684317588806e+00   7.719460010529e+00 
  7.762073040009e+00   7.797521114349e+00   7.819147109985e+00   7.832372665405e+00   7.835630893707e+00   7.828554153442e+00   7.803358078003e+00   7.746976375580e+00   7.669375896454e+00 
  7.589434146881e+00   0.000000000000e+00   0.000000000000e+00   8.157411575317e+00   8.112737655640e+00   8.035549163818e+00   7.953717708588e+00   8.004216194153e+00   8.061428070068e+00 
  8.100370407104e+00   8.148520469666e+00   8.226153373718e+00   8.285588264465e+00   8.310878753662e+00   8.326327323914e+00   8.332071304321e+00   8.334361076355e+00   8.305874824524e+00 
  8.202743530273e+00   8.028527259827e+00   7.858451843262e+00   0.000000000000e+00   0.000000000000e+00   9.557828903198e+00   9.442967414856e+00   9.294080734253e+00   9.102133750916e+00 
  9.233780860901e+00   9.317078590393e+00   9.344491958618e+00   9.400300025940e+00   9.552660942078e+00   9.653008460999e+00   9.677587509155e+00   9.704305648804e+00   9.710204124451e+00 
  9.732954025269e+00   9.723681449890e+00   9.571767807007e+00   9.239377021790e+00   8.911154747009e+00   0.000000000000e+00   0.000000000000e+00   1.148479366302e+01   1.121947097778e+01 
  1.106135082245e+01   1.091107845306e+01   1.085840702057e+01   1.082529067993e+01   1.090638351440e+01   1.110232543945e+01   1.136054706573e+01   1.149327850342e+01   1.157909488678e+01 
  1.163251495361e+01   1.167018699646e+01   1.167256641388e+01   1.166943168640e+01   1.162468528748e+01   1.155134773254e+01   1.107768917084e+01   0.000000000000e+00   0.000000000000e+00 
  1.946578788757e+01   1.782175064087e+01   1.708932113647e+01   1.680543136597e+01   1.668866348267e+01   1.673236846924e+01   1.692803764343e+01   1.754167556763e+01   1.899766731262e+01 
  1.934902763367e+01   1.937654304504e+01   1.947577095032e+01   1.952087783813e+01   1.952241325378e+01   1.951386070251e+01   1.956050491333e+01   1.955900764465e+01   1.787634468079e+01 
  0.000000000000e+00   0.000000000000e+00   0.000000000000e+00   0.000000000000e+00   0.000000000000e+00   0.000000000000e+00   0.000000000000e+00   0.000000000000e+00   0.000000000000e+00 
  0.000000000000e+00   0.000000000000e+00   0.000000000000e+00   0.000000000000e+00   0.000000000000e+00   0.000000000000e+00   0.000000000000e+00   0.000000000000e+00   0.000000000000e+00 
  0.000000000000e+00   0.000000000000e+00   0.000000000000e+00   0.000000000000e+00   0.000000000000e+00   0.000000000000e+00   0.000000000000e+00   0.000000000000e+00   0.000000000000e+00 
  0.000000000000e+00   0.000000000000e+00   0.000000000000e+00   0.000000000000e+00   0.000000000000e+00   0.000000000000e+00   0.000000000000e+00   0.000000000000e+00   0.000000000000e+00 
  0.000000000000e+00   0.000000000000e+00   0.000000000000e+00   0.000000000000e+00   0.000000000000e+00   0.000000000000e+00   8.764721870422e+00   8.764966011047e+00   8.765446662903e+00 
  8.766149520874e+00   8.767049789429e+00   8.768112182617e+00   8.769290924072e+00   8.770532608032e+00   8.771777153015e+00   8.772966384888e+00   8.774050712585e+00   8.774992942810e+00 
  8.775774002075e+00   8.776386260986e+00   8.776841163635e+00   8.777155876160e+00   8.777305603027e+00   8.777601242065e+00   0.000000000000e+00   0.000000000000e+00   8.721327781677e+00 
  8.721579551697e+00   8.722079277039e+00   8.722810745239e+00   8.723752975464e+00   8.724869728088e+00   8.726114273071e+00   8.727426528931e+00   8.728741645813e+00   8.729994773865e+00 
  8.731131553650e+00   8.732111930847e+00   8.732913017273e+00   8.733530998230e+00   8.733979225159e+00   8.734280586243e+00   8.734415054321e+00   8.734704017639e+00   0.000000000000e+00 
  0.000000000000e+00   8.693094253540e+00   8.693363189697e+00   8.693898200989e+00   8.694690704346e+00   8.695719718933e+00   8.696952819824e+00   8.698335647583e+00   8.699797630310e+00 
  8.701260566711e+00   8.702646255493e+00   8.703886032104e+00   8.704934120178e+00   8.705763816833e+00   8.706375122070e+00   8.706790924072e+00   8.707048416138e+00   8.707141876221e+00 
  8.707408905029e+00   0.000000000000e+00   0.000000000000e+00   8.672282218933e+00   8.672581672668e+00   8.673183441162e+00   8.674085617065e+00   8.675274848938e+00   8.676716804504e+00 
  8.678347587585e+00   8.680078506470e+00   8.681805610657e+00   8.683422088623e+00   8.684838294983e+00   8.685990333557e+00   8.686851501465e+00   8.687427520752e+00   8.687764167786e+00 
  8.687920570374e+00   8.687923431396e+00   8.688138008118e+00   0.000000000000e+00   0.000000000000e+00   8.617575645447e+00   8.617922782898e+00   8.618637084961e+00   8.619730949402e+00 
  8.621198654175e+00   8.623004913330e+00   8.625067710876e+00   8.627264976501e+00   8.629447937012e+00   8.631466865540e+00   8.633194923401e+00   8.634544372559e+00   8.635484695435e+00 
  8.636034965515e+00   8.636270523071e+00   8.636286735535e+00   8.636156082153e+00   8.636269569397e+00   0.000000000000e+00   0.000000000000e+00   8.507491111755e+00   8.507853507996e+00 
  8.508625984192e+00   8.509863853455e+00   8.511592864990e+00   8.513785362244e+00   8.516340255737e+00   8.519085884094e+00   8.521812438965e+00   8.524309158325e+00   8.526396751404e+00 
  8.527957916260e+00   8.528951644897e+00   8.529415130615e+00   8.529461860657e+00   8.529237747192e+00   8.528894424438e+00   8.528840065002e+00   0.000000000000e+00   0.000000000000e+00 