# vtk DataFile Version 2.0
Written using VisIt writer
ASCII
DATASET RECTILINEAR_GRID
DIMENSIONS 20 20 20
X_COORDINATES 20 float
  0.000000000000e+00   1.000000000000e+00   2.000000000000e+00   3.000000000000e+00   4.000000000000e+00   5.000000000000e+00   6.000000000000e+00   7.000000000000e+00   8.000000000000e+00 
  9.000000000000e+00   1.000000000000e+01   1.100000000000e+01   1.200000000000e+01   1.300000000000e+01   1.400000000000e+01   1.500000000000e+01   1.600000000000e+01   1.700000000000e+01 
  1.800000000000e+01   1.900000000000e+01 
Y_COORDINATES 20 float
  0.000000000000e+00   1.000000000000e+00   2.000000000000e+00   3.000000000000e+00   4.000000000000e+00   5.000000000000e+00   6.000000000000e+00   7.000000000000e+00   8.000000000000e+00 
  9.000000000000e+00   1.000000000000e+01   1.100000000000e+01   1.200000000000e+01   1.300000000000e+01   1.400000000000e+01   1.500000000000e+01   1.600000000000e+01   1.700000000000e+01 
  1.800000000000e+01   1.900000000000e+01 
Z_COORDINATES 20 float
  0.000000000000e+00   1.000000000000e+00   2.000000000000e+00   3.000000000000e+00   4.000000000000e+00   5.000000000000e+00   6.000000000000e+00   7.000000000000e+00   8.000000000000e+00 
  9.000000000000e+00   1.000000000000e+01   1.100000000000e+01   1.200000000000e+01   1.300000000000e+01   1.400000000000e+01   1.500000000000e+01   1.600000000000e+01   1.700000000000e+01 
  1.800000000000e+01   1.900000000000e+01 
CELL_DATA 6859
POINT_DATA 8000
SCALARS pressure float
LOOKUP_TABLE default
  0.000000000000e+00   0.000000000000e+00   0.000000000000e+00   0.000000000000e+00   0.000000000000e+00   0.000000000000e+00   0.000000000000e+00   0.000000000000e+00   0.000000000000e+00 
  0.000000000000e+00   0.000000000000e+00   0.000000000000e+00   0.000000000000e+00   0.000000000000e+00   0.000000000000e+00   0.000000000000e+00   0.000000000000e+00   0.000000000000e+00 
  0.000000000000e+00   0.000000000000e+00   0.000000000000e+00   0.000000000000e+00   0.000000000000e+00   0.000000000000e+00   0.000000000000e+00   0.000000000000e+00   0.000000000000e+00 
  0.000000000000e+00   0.000000000000e+00   0.000000000000e+00   0.000000000000e+00   0.000000000000e+00   0.000000000000e+00   0.000000000000e+00   0.000000000000e+00   0.000000000000e+00 
  0.000000000000e+00   0.000000000000e+00   0.000000000000e+00   0.000000000000e+00   0.000000000000e+00   0.000000000000e+00   0.000000000000e+00   0.000000000000e+00   0.000000000000e+00 
  0.000000000000e+00   0.000000000000e+00   0.000000000000e+00   0.000000000000e+00   0.000000000000e+00   0.000000000000e+00   0.000000000000e+00   0.000000000000e+00   0.000000000000e+00 
  0.000000000000e+00   0.000000000000e+00   0.000000000000e+00   0.000000000000e+00   0.000000000000e+00   0.000000000000e+00   0.000000000000e+00   0.000000000000e+00   0.000000000000e+00 
  0.000000000000e+00   0.000000000000e+00   0.000000000000e+00   0.000000000000e+00   0.000000000000e+00   0.000000000000e+00   0.000000000000e+00   0.000000000000e+00   0.000000000000e+00 
  0.000000000000e+00   0.000000000000e+00   0.000000000000e+00   0.000000000000e+00   0.000000000000e+00   0.000000000000e+00   0.000000000000e+00   0.000000000000e+00   0.000000000000e+00 
  0.000000000000e+00   0.000000000000e+00   0.000000000000e+00   0.000000000000e+00   0.000000000000e+00   0.000000000000e+00   0.000000000000e+00   0.000000000000e+00   0.000000000000e+00 
  0.000000000000e+00   0.000000000000e+00   0.000000000000e+00   0.000000000000e+00   0.000000000000e+00   0.000000000000e+00   0.000000000000e+00   0.000000000000e+00   0.000000000000e+00 
  0.000000000000e+00   0.000000000000e+00   0.000000000000e+00   0.000000000000e+00   0.000000000000e+00   0.000000000000e+00   0.000000000000e+00   0.000000000000e+00   0.000000000000e+00 
  0.000000000000e+00   0.000000000000e+00   0.000000000000e+00   0.000000000000e+00   0.000000000000e+00   0.000000000000e+00   0.000000000000e+00   0.000000000000e+00   0.000000000000e+00 
  0.000000000000e+00   0.000000000000e+00   0.000000000000e+00   0.000000000000e+00   0.000000000000e+00   0.000000000000e+00   0.000000000000e+00   0.000000000000e+00   0.000000000000e+00 
  0.000000000000e+00   0.000000000000e+00   0.000000000000e+00   0.000000000000e+00   0.000000000000e+00   0.000000000000e+00   0.000000000000e+00   0.000000000000e+00   0.000000000000e+00 
  0.000000000000e+00   0.000000000000e+00   0.000000000000e+00   0.000000000000e+00   0.000000000000e+00   0.000000000000e+00   0.000000000000e+00   0.000000000000e+00   0.000000000000e+00 
  0.000000000000e+00   0.000000000000e+00   0.000000000000e+00   0.000000000000e+00   0.000000000000e+00   0.000000000000e+00   0.000000000000e+00   0.000000000000e+00   0.000000000000e+00 
  0.000000000000e+00   0.000000000000e+00   0.000000000000e+00   0.000000000000e+00   0.000000000000e+00   0.000000000000e+00   0.000000000000e+00   0.000000000000e+00   0.000000000000e+00 
  0.000000000000e+00   0.000000000000e+00   0.000000000000e+00   0.000000000000e+00   0.000000000000e+00   0.000000000000e+00   0.000000000000e+00   0.000000000000e+00   0.000000000000e+00 
  0.000000000000e+00   0.000000000000e+00   0.000000000000e+00   0.000000000000e+00   0.000000000000e+00   0.000000000000e+00   0.000000000000e+00   0.000000000000e+00   0.000000000000e+00 
  0.000000000000e+00   0.000000000000e+00   0.000000000000e+00   0.000000000000e+00   0.000000000000e+00   0.000000000000e+00   0.000000000000e+00   0.000000000000e+00   0.000000000000e+00 
  0.000000000000e+00   0.000000000000e+00   0.000000000000e+00   0.000000000000e+00   0.000000000000e+00   0.000000000000e+00   0.000000000000e+00   0.000000000000e+00   0.000000000000e+00 
  0.000000000000e+00   0.000000000000e+00   0.000000000000e+00   0.000000000000e+00   0.000000000000e+00   0.000000000000e+00   0.000000000000e+00   0.000000000000e+00   0.000000000000e+00 
  0.000000000000e+00   0.000000000000e+00   0.000000000000e+00   0.000000000000e+00   0.000000000000e+00   0.000000000000e+00   0.000000000000e+00   0.000000000000e+00   0.000000000000e+00 
  0.000000000000e+00   0.000000000000e+00   0.000000000000e+00   0.000000000000e+00   0.000000000000e+00   0.000000000000e+00   0.000000000000e+00   0.000000000000e+00   0.000000000000e+00 
  0.000000000000e+00   0.000000000000e+00   0.000000000000e+00   0.000000000000e+00   0.000000000000e+00   0.000000000000e+00   0.000000000000e+00   0.000000000000e+00   0.000000000000e+00 
  0.000000000000e+00   0.000000000000e+00   0.000000000000e+00   0.000000000000e+00   0.000000000000e+00   0.000000000000e+00   0.000000000000e+00   0.000000000000e+00   0.000000000000e+00 
  0.000000000000e+00   0.000000000000e+00   0.000000000000e+00   0.000000000000e+00   0.000000000000e+00   0.000000000000e+00   0.000000000000e+00   0.000000000000e+00   0.000000000000e+00 
  0.000000000000e+00   0.000000000000e+00   0.000000000000e+00   0.000000000000e+00   0.000000000000e+00   0.000000000000e+00   0.000000000000e+00   0.000000000000e+00   0.000000000000e+00 
  0.000000000000e+00   0.000000000000e+00   0.000000000000e+00   0.000000000000e+00   0.000000000000e+00   0.000000000000e+00   0.000000000000e+00   0.000000000000e+00   0.000000000000e+00 
  0.000000000000e+00   0.000000000000e+00   0.000000000000e+00   0.000000000000e+00   0.000000000000e+00   0.000000000000e+00   0.000000000000e+00   0.000000000000e+00   0.000000000000e+00 
  0.000000000000e+00   0.000000000000e+00   0.000000000000e+00   0.000000000000e+00   0.000000000000e+00   0.000000000000e+00   0.000000000000e+00   0.000000000000e+00   0.000000000000e+00 
  0.000000000000e+00   0.000000000000e+00   0.000000000000e+00   0.000000000000e+00   0.000000000000e+00   0.000000000000e+00   0.000000000000e+00   0.000000000000e+00   0.000000000000e+00 
  0.000000000000e+00   0.000000000000e+00   0.000000000000e+00   0.000000000000e+00   0.000000000000e+00   0.000000000000e+00   0.000000000000e+00   0.000000000000e+00   0.000000000000e+00 
  0.000000000000e+00   0.000000000000e+00   0.000000000000e+00   0.000000000000e+00   0.000000000000e+00   0.000000000000e+00   0.000000000000e+00   0.000000000000e+00   0.000000000000e+00 
  0.000000000000e+00   0.000000000000e+00   0.000000000000e+00   0.000000000000e+00   0.000000000000e+00   0.000000000000e+00   0.000000000000e+00   0.000000000000e+00   0.000000000000e+00 
  0.000000000000e+00   0.000000000000e+00   0.000000000000e+00   0.000000000000e+00   0.000000000000e+00   0.000000000000e+00   0.000000000000e+00   0.000000000000e+00   0.000000000000e+00 
  0.000000000000e+00   0.000000000000e+00   0.000000000000e+00   0.000000000000e+00   0.000000000000e+00   0.000000000000e+00   0.000000000000e+00   0.000000000000e+00   0.000000000000e+00 
  0.000000000000e+00   0.000000000000e+00   0.000000000000e+00   0.000000000000e+00   0.000000000000e+00   0.000000000000e+00   0.000000000000e+00   0.000000000000e+00   0.000000000000e+00 
  0.000000000000e+00   0.000000000000e+00   0.000000000000e+00   0.000000000000e+00   0.000000000000e+00   0.000000000000e+00   0.000000000000e+00   0.000000000000e+00   0.000000000000e+00 
  0.000000000000e+00   0.000000000000e+00   0.000000000000e+00   0.000000000000e+00   0.000000000000e+00   0.000000000000e+00   0.000000000000e+00   0.000000000000e+00   0.000000000000e+00 
  0.000000000000e+00   0.000000000000e+00   0.000000000000e+00   0.000000000000e+00   0.000000000000e+00   0.000000000000e+00   0.000000000000e+00   0.000000000000e+00   0.000000000000e+00 
  0.000000000000e+00   0.000000000000e+00   0.000000000000e+00   0.000000000000e+00   0.000000000000e+00   0.000000000000e+00   0.000000000000e+00   0.000000000000e+00   0.000000000000e+00 
  0.000000000000e+00   0.000000000000e+00   0.000000000000e+00   0.000000000000e+00   0.000000000000e+00   0.000000000000e+00   0.000000000000e+00   0.000000000000e+00   0.000000000000e+00 
  0.000000000000e+00   0.000000000000e+00   0.000000000000e+00   0.000000000000e+00   0.000000000000e+00   0.000000000000e+00   0.000000000000e+00   0.000000000000e+00   0.000000000000e+00 
  0.000000000000e+00   0.000000000000e+00   0.000000000000e+00   0.000000000000e+00   0.000000000000e+00   0.000000000000e+00   0.000000000000e+00   0.000000000000e+00   0.000000000000e+00 
  0.000000000000e+00   0.000000000000e+00   0.000000000000e+00   0.000000000000e+00   0.000000000000e+00   0.000000000000e+00   0.000000000000e+00   7.079171657562e+00   8.565185546875e+00 
  9.241111755371e+00   7.843121051788e+00   7.272147178650e+00   7.578083515167e+00   7.522359848022e+00   8.287175178528e+00   1.000906562805e+01   1.180609893799e+01   1.414987468719e+01 
  1.426426219940e+01   1.428953647614e+01   1.222491645813e+01   1.134027481079e+01   1.146174621582e+01   1.279537963867e+01   1.713541221619e+01   0.000000000000e+00   0.000000000000e+00 
  6.162944793701e+00   6.782233715057e+00   7.157015800476e+00   6.483828544617e+00   6.086045265198e+00   6.191950798035e+00   6.207851409912e+00   6.718493938446e+00   7.559588432312e+00 
  8.669450759888e+00   1.022878646851e+01   1.077691173553e+01   1.083442306519e+01   9.756402969360e+00   8.981575012207e+00   8.976308822632e+00   9.895587921143e+00   1.235891246796e+01 
  0.000000000000e+00   0.000000000000e+00   5.699094772339e+00   5.908493041992e+00   6.093633174896e+00   5.877789497375e+00   5.597691535950e+00   5.519849300385e+00   5.575903892517e+00 
  5.892305374146e+00   6.513163089752e+00   7.241144180298e+00   8.059854507446e+00   8.395728111267e+00   8.343342781067e+00   7.899286270142e+00   7.538136959076e+00   7.600212574005e+00 
  8.103981971741e+00   9.130915641785e+00   0.000000000000e+00   0.000000000000e+00   5.228849411011e+00   5.272129535675e+00   5.266265869141e+00   5.181588172913e+00   5.108526229858e+00 
  5.125772953033e+00   5.262951850891e+00   5.379578590393e+00   5.665602207184e+00   5.922370910645e+00   6.292486190796e+00   6.451394081116e+00   6.455891609192e+00   6.427093505859e+00 
  6.430424213409e+00   6.497258663177e+00   6.685726165771e+00   6.935433864594e+00   0.000000000000e+00   0.000000000000e+00   4.984487533569e+00   4.884649276733e+00   4.947384357452e+00 
  4.880561828613e+00   4.874480724335e+00   4.905206680298e+00   4.898313045502e+00   4.972928047180e+00   5.647560596466e+00   5.375591754913e+00   5.345694065094e+00   5.534199714661e+00 
  5.562120914459e+00   5.509102821350e+00   5.747691154480e+00   5.688288688660e+00   5.753437042236e+00   5.882778167725e+00   0.000000000000e+00   0.000000000000e+00   4.708392620087e+00 
  4.680138111115e+00   4.736891269684e+00   4.702214241028e+00   4.690106391907e+00   4.654833316803e+00   4.621834278107e+00   4.536441802979e+00   4.716857910156e+00   4.623798847198e+00 
  4.726573944092e+00   4.824656009674e+00   4.835292339325e+00   4.793666839600e+00   4.802014827728e+00   4.780356884003e+00   4.857605457306e+00   4.922452449799e+00   0.000000000000e+00 
  0.000000000000e+00   4.293430328369e+00   4.325741291046e+00   4.280582427979e+00   4.256936550140e+00   4.184910774231e+00   3.991488695145e+00   4.267596721649e+00   3.939641475677e+00 
  3.954895019531e+00   3.860769510269e+00   3.899861335754e+00   3.834994554520e+00   3.827183246613e+00   3.858305692673e+00   3.879778862000e+00   3.928884506226e+00   3.949827671051e+00 
  3.954969644547e+00   0.000000000000e+00   0.000000000000e+00   4.357420921326e+00   4.421188831329e+00   4.095478534698e+00   4.028292655945e+00   4.199766159058e+00   3.885281085968e+00 
  5.065521717072e+00   3.658259391785e+00   3.852353334427e+00   3.224100112915e+00   3.172820806503e+00   3.183091163635e+00   3.172432661057e+00   3.193207740784e+00   3.220030784607e+00 
  3.233868837357e+00   3.254232645035e+00   3.264358043671e+00   0.000000000000e+00   0.000000000000e+00   4.118376255035e+00   4.151465892792e+00   3.943271875381e+00   3.842271804810e+00 
  3.842280626297e+00   3.488883495331e+00   3.893515825272e+00   3.130852460861e+00   3.025028705597e+00   2.196842432022e+00   2.063075542450e+00   2.028554916382e+00   2.016710042953e+00 
  2.034431934357e+00   2.121653795242e+00   2.291658401489e+00   2.298674106598e+00   2.159800291061e+00   0.000000000000e+00   0.000000000000e+00   3.820304393768e+00   3.771696805954e+00 
  3.644811868668e+00   3.472545623779e+00   3.322489976883e+00   3.263027191162e+00   3.120573997498e+00   2.890691041946e+00   2.161327838898e+00   4.922648906708e+00   4.736783027649e+00 
  4.390275955200e+00   3.964033603668e+00   3.469822645187e+00   2.562248945236e+00   4.846692562103e+00   4.849510192871e+00   1.869015574455e+00   0.000000000000e+00   0.000000000000e+00 
  3.958995819092e+00   3.811994314194e+00   3.577426671982e+00   3.214439392090e+00   3.078313589096e+00   2.978887319565e+00   2.966600656509e+00   2.787427902222e+00   2.631380081177e+00 
  2.104209423065e+00   2.060787200928e+00   2.151131153107e+00   2.250186204910e+00   2.265878200531e+00   2.363389015198e+00   2.728499889374e+00   2.843985557556e+00   2.536511182785e+00 
  0.000000000000e+00   0.000000000000e+00   3.882441282272e+00   3.667692422867e+00   3.164978742599e+00   2.244106531143e+00   2.004896640778e+00   1.953028440475e+00   2.242084503174e+00 
  2.067050695419e+00   2.559698104858e+00   2.816669940948e+00   3.196158170700e+00   3.492394685745e+00   3.975101709366e+00   3.684255123138e+00   3.447446823120e+00   3.764213800430e+00 
  4.209859371185e+00   4.040139198303e+00   0.000000000000e+00   0.000000000000e+00   3.988263607025e+00   3.674839258194e+00   2.761661291122e+00   5.482506752014e+00   5.499766826630e+00 
  5.551808357239e+00   1.578404188156e+00   5.734673500061e+00   2.414378643036e+00   3.439829587936e+00   4.421617984772e+00   4.804472446442e+00   5.877975463867e+00   4.968661785126e+00 
  4.254595756531e+00   4.943703651428e+00   5.961180686951e+00   5.545730590820e+00   0.000000000000e+00   0.000000000000e+00   4.368331909180e+00   4.094932556152e+00   3.556380510330e+00 
  2.690480470657e+00   2.454692363739e+00   2.449799299240e+00   2.777265071869e+00   2.677099466324e+00   3.360784053802e+00   3.674902677536e+00   3.983037710190e+00   3.772619724274e+00 
  4.792608737946e+00   4.379765510559e+00   3.680007696152e+00   4.597601890564e+00   5.515314579010e+00   5.293297767639e+00   0.000000000000e+00   0.000000000000e+00   4.683920383453e+00 
  4.429634094238e+00   4.160445213318e+00   3.823242902756e+00   3.645634651184e+00   3.622610569000e+00   3.703962802887e+00   3.740821361542e+00   3.982158184052e+00   4.065543651581e+00 
  4.131313800812e+00   4.120813369751e+00   4.470099449158e+00   4.448698520660e+00   4.333462715149e+00   4.721216678619e+00   5.218167304993e+00   5.133089065552e+00   0.000000000000e+00 
  0.000000000000e+00   4.811299800873e+00   4.720527172089e+00   4.652605533600e+00   4.528264522552e+00   4.423521518707e+00   4.383463859558e+00   4.400430679321e+00   4.438147544861e+00 
  4.502375125885e+00   4.574850559235e+00   4.622162342072e+00   4.641842365265e+00   4.737662315369e+00   4.792842864990e+00   4.848159313202e+00   5.027441024780e+00   5.269871711731e+00 
  5.278983116150e+00   0.000000000000e+00   0.000000000000e+00   4.995024681091e+00   4.937513351440e+00   4.931840896606e+00   4.850250244141e+00   4.797101497650e+00   4.770450592041e+00 
  4.745273590088e+00   4.804388046265e+00   4.815848350525e+00   4.825495243073e+00   4.899618148804e+00   4.926033020020e+00   4.952967643738e+00   5.018806934357e+00   5.086798667908e+00 
  5.206563949585e+00   5.312082290649e+00   5.380838394165e+00   0.000000000000e+00   0.000000000000e+00   5.128366947174e+00   5.142464160919e+00   5.119614124298e+00   5.112418651581e+00 
  5.089554309845e+00   5.071131229401e+00   5.088537693024e+00   5.052013397217e+00   5.111965179443e+00   5.175178527832e+00   5.133680820465e+00   5.174334526062e+00   5.279949188232e+00 
  5.341705322266e+00   5.407448291779e+00   5.470391750336e+00   5.505004405975e+00   5.525198459625e+00   0.000000000000e+00   0.000000000000e+00   0.000000000000e+00   0.000000000000e+00 
  0.000000000000e+00   0.000000000000e+00   0.000000000000e+00   0.000000000000e+00   0.000000000000e+00   0.000000000000e+00   0.000000000000e+00   0.000000000000e+00   0.000000000000e+00 
  0.000000000000e+00   0.000000000000e+00   0.000000000000e+00   0.000000000000e+00   0.000000000000e+00   0.000000000000e+00   0.000000000000e+00   0.000000000000e+00   0.000000000000e+00 
  0.000000000000e+00   0.000000000000e+00   0.000000000000e+00   0.000000000000e+00   0.000000000000e+00   0.000000000000e+00   0.000000000000e+00   0.000000000000e+00   0.000000000000e+00 
  0.000000000000e+00   0.000000000000e+00   0.000000000000e+00   0.000000000000e+00   0.000000000000e+00   0.000000000000e+00   0.000000000000e+00   0.000000000000e+00   0.000000000000e+00 
  0.000000000000e+00   0.000000000000e+00   5.203295707703e+00   5.835124015808e+00   6.177744388580e+00   5.496015548706e+00   4.999796867371e+00   5.037862777710e+00   5.053022861481e+00 
  5.557152748108e+00   6.544917106628e+00   7.877373218536e+00   9.503298759460e+00   1.011929988861e+01   1.012066173553e+01   8.975707054138e+00   8.106482505798e+00   8.117965698242e+00 
  9.117014884949e+00   1.157929992676e+01   0.000000000000e+00   0.000000000000e+00   5.036715030670e+00   5.353280544281e+00   5.476926803589e+00   5.043372631073e+00   4.786323547363e+00 
  5.052397727966e+00   5.162723541260e+00   5.597990512848e+00   6.075133800507e+00   6.773957252502e+00   7.913259506226e+00   8.882918357849e+00   8.982496261597e+00   8.294083595276e+00 
  7.323956489563e+00   7.207026481628e+00   7.949756145477e+00   9.784148216248e+00   0.000000000000e+00   0.000000000000e+00   4.443325042725e+00   4.536307334900e+00   4.613198280334e+00 
  4.461880207062e+00   4.282393455505e+00   4.292387962341e+00   4.346138000488e+00   4.703991413116e+00   5.219636440277e+00   5.599765300751e+00   6.205403804779e+00   6.611340045929e+00 
  6.610807895660e+00   6.331582069397e+00   6.002760887146e+00   6.027276039124e+00   6.375862598419e+00   7.192028522491e+00   0.000000000000e+00   0.000000000000e+00   4.083509922028e+00 
  4.114448070526e+00   4.117051601410e+00   4.063127040863e+00   3.975668430328e+00   3.944520950317e+00   4.010389328003e+00   4.190153598785e+00   4.476400852203e+00   4.745481014252e+00 
  5.069393157959e+00   5.250132083893e+00   5.279337882996e+00   5.210649967194e+00   5.116039752960e+00   5.172840595245e+00   5.348637580872e+00   5.609179973602e+00   0.000000000000e+00 
  0.000000000000e+00   3.671957969666e+00   3.672035217285e+00   3.672341346741e+00   3.640469789505e+00   3.627163648605e+00   3.646687984467e+00   3.654364109039e+00   3.610748052597e+00 
  3.732065200806e+00   3.799360990524e+00   4.000822067261e+00   4.162963867188e+00   4.206102371216e+00   4.159712791443e+00   4.138390064240e+00   4.130772590637e+00   4.207834720612e+00 
  4.305092811584e+00   0.000000000000e+00   0.000000000000e+00   3.551490545273e+00   3.530145168304e+00   3.523509979248e+00   3.500924110413e+00   3.473770141602e+00   3.464410066605e+00 
  3.475230455399e+00   3.452860832214e+00   3.456415891647e+00   3.486452579498e+00   3.610039234161e+00   3.631401777267e+00   3.656598567963e+00   3.669471740723e+00   3.669440746307e+00 
  3.703128576279e+00   3.753681182861e+00   3.793969631195e+00   0.000000000000e+00   0.000000000000e+00   3.370664596558e+00   3.363815307617e+00   3.375099658966e+00   3.347566366196e+00 
  3.267293453217e+00   3.160493850708e+00   3.139231204987e+00   3.096596717834e+00   3.082575798035e+00   3.082509756088e+00   3.094080209732e+00   3.056851863861e+00   3.060639381409e+00 
  3.084331750870e+00   3.112006902695e+00   3.154117345810e+00   3.178717374802e+00   3.187470912933e+00   0.000000000000e+00   0.000000000000e+00   2.930072546005e+00   2.957200288773e+00 
  2.863823413849e+00   2.775843143463e+00   2.682078838348e+00   2.439514398575e+00   2.650625228882e+00   2.291663169861e+00   2.361243486404e+00   2.252393960953e+00   2.262988805771e+00 
  2.269640207291e+00   2.269151687622e+00   2.290098905563e+00   2.328861713409e+00   2.366412401199e+00   2.388988494873e+00   2.377560853958e+00   0.000000000000e+00   0.000000000000e+00 
  3.029191017151e+00   3.137979030609e+00   2.960942268372e+00   2.860841512680e+00   2.777451992035e+00   2.611361265182e+00   2.613540172577e+00   2.365769147873e+00   2.207442283630e+00 
  1.913529038429e+00   1.798465967178e+00   1.753405570984e+00   1.758540630341e+00   1.802595615387e+00   1.904656767845e+00   2.049639463425e+00   2.075814962387e+00   1.979713678360e+00 
  0.000000000000e+00   0.000000000000e+00   2.972441673279e+00   2.971247673035e+00   2.811664819717e+00   2.700437545776e+00   2.586153984070e+00   2.482125520706e+00   2.384321928024e+00 
  2.194545507431e+00   1.898087382317e+00   1.347111701965e+00   1.198666930199e+00   1.177219629288e+00   1.201473355293e+00   1.237804889679e+00   1.350128769875e+00   1.556839466095e+00 
  1.597149252892e+00   1.426996111870e+00   0.000000000000e+00   0.000000000000e+00   2.870502948761e+00   2.767257213593e+00   2.591410875320e+00   2.357151985168e+00   2.211178064346e+00 
  2.124324560165e+00   2.085113763809e+00   1.985190987587e+00   1.885419845581e+00   1.705698251724e+00   1.684955239296e+00   1.745625019073e+00   1.837141633034e+00   1.864716529846e+00 
  1.917190551758e+00   2.104424238205e+00   2.211001157761e+00   2.116938352585e+00   0.000000000000e+00   0.000000000000e+00   3.013499975204e+00   2.852777242661e+00   2.526338338852e+00 
  2.082057714462e+00   1.872431993484e+00   1.820678114891e+00   1.893843173981e+00   1.856202125549e+00   2.020973443985e+00   2.134517431259e+00   2.292813062668e+00   2.449349403381e+00 
  2.776251554489e+00   2.688083171844e+00   2.583047389984e+00   2.880631685257e+00   3.182776451111e+00   3.142699718475e+00   0.000000000000e+00   0.000000000000e+00   3.183755159378e+00 
  2.965270996094e+00   2.514551401138e+00   1.762040138245e+00   1.536633253098e+00   1.515996217728e+00   1.790901422501e+00   1.669928669930e+00   2.172941446304e+00   2.508545637131e+00 
  2.756246805191e+00   2.655967473984e+00   3.520028591156e+00   3.219907045364e+00   2.632734775543e+00   3.411397695541e+00   4.086876869202e+00   4.011100769043e+00   0.000000000000e+00 
  0.000000000000e+00   3.433920860291e+00   3.253815650940e+00   2.917793989182e+00   2.481489181519e+00   2.286202430725e+00   2.261667728424e+00   2.374979972839e+00   2.397505760193e+00 
  2.642392396927e+00   2.725216150284e+00   2.403596162796e+00   4.251103878021e+00   2.701801061630e+00   2.592388629913e+00   3.188962936401e+00   2.955268383026e+00   3.913389444351e+00 
  4.019784450531e+00   0.000000000000e+00   0.000000000000e+00   3.751620769501e+00   3.600691080093e+00   3.415367603302e+00   3.188092947006e+00   3.057367324829e+00   3.021713256836e+00 
  3.063062191010e+00   3.104489088058e+00   3.206252336502e+00   3.242537736893e+00   3.137068033218e+00   2.783904075623e+00   3.291279792786e+00   3.305426120758e+00   2.961257219315e+00 
  3.614324808121e+00   4.083185195923e+00   4.167350769043e+00   0.000000000000e+00   0.000000000000e+00   3.943363904953e+00   3.883469581604e+00   3.820940017700e+00   3.710705518723e+00 
  3.629498243332e+00   3.591012239456e+00   3.596876621246e+00   3.624593496323e+00   3.669499635696e+00   3.701697826385e+00   3.691309690475e+00   3.659039020538e+00   3.789330482483e+00 
  3.844299554825e+00   3.863518953323e+00   4.078786849976e+00   4.293737888336e+00   4.309737682343e+00   0.000000000000e+00   0.000000000000e+00   4.096402168274e+00   4.093421459198e+00 
  4.066014289856e+00   3.966259956360e+00   3.911029100418e+00   3.886132001877e+00   3.885968923569e+00   3.885673761368e+00   3.932171583176e+00   3.953606128693e+00   3.945113420486e+00 
  3.985970020294e+00   4.057185649872e+00   4.118951320648e+00   4.169032096863e+00   4.277849674225e+00   4.397618770599e+00   4.454359531403e+00   0.000000000000e+00   0.000000000000e+00 
  4.308974266052e+00   4.297022342682e+00   4.278601169586e+00   4.323511600494e+00   4.307947635651e+00   4.289782047272e+00   4.267619609833e+00   4.282065868378e+00   4.273551464081e+00 
  4.310806751251e+00   4.367078781128e+00   4.359837532043e+00   4.392846584320e+00   4.437486648560e+00   4.513366699219e+00   4.576107978821e+00   4.602550506592e+00   4.623389720917e+00 
  0.000000000000e+00   0.000000000000e+00   0.000000000000e+00   0.000000000000e+00   0.000000000000e+00   0.000000000000e+00   0.000000000000e+00   0.000000000000e+00   0.000000000000e+00 
  0.000000000000e+00   0.000000000000e+00   0.000000000000e+00   0.000000000000e+00   0.000000000000e+00   0.000000000000e+00   0.000000000000e+00   0.000000000000e+00   0.000000000000e+00 
  0.000000000000e+00   0.000000000000e+00   0.000000000000e+00   0.000000000000e+00   0.000000000000e+00   0.000000000000e+00   0.000000000000e+00   0.000000000000e+00   0.000000000000e+00 
  0.000000000000e+00   0.000000000000e+00   0.000000000000e+00   0.000000000000e+00   0.000000000000e+00   0.000000000000e+00   0.000000000000e+00   0.000000000000e+00   0.000000000000e+00 
  0.000000000000e+00   0.000000000000e+00   0.000000000000e+00   0.000000000000e+00   0.000000000000e+00   0.000000000000e+00   3.444390058517e+00   3.590058803558e+00   3.685365676880e+00 
  3.472534656525e+00   3.200653314590e+00   3.075388193130e+00   3.098353385925e+00   3.401667833328e+00   3.981351613998e+00   4.699768066406e+00   5.432697296143e+00   5.767223358154e+00 
  5.742000579834e+00   5.373140811920e+00   5.068871974945e+00   5.132422447205e+00   5.579083919525e+00   6.393846988678e+00   0.000000000000e+00   0.000000000000e+00   3.070950508118e+00 
  3.143179178238e+00   3.196879625320e+00   3.068818092346e+00   2.892419099808e+00   2.866565465927e+00   2.896422863007e+00   3.194566011429e+00   3.656511545181e+00   4.005573272705e+00 
  4.549778461456e+00   4.967985153198e+00   4.983713150024e+00   4.771791458130e+00   4.465724468231e+00   4.484824657440e+00   4.807120323181e+00   5.454593181610e+00   0.000000000000e+00 
  0.000000000000e+00   3.015872716904e+00   3.001661539078e+00   3.023528575897e+00   3.068053245544e+00   3.033790826797e+00   2.989933490753e+00   2.998534917831e+00   3.384380340576e+00 
  3.979617595673e+00   3.921193838120e+00   4.301602840424e+00   4.457845211029e+00   4.427059650421e+00   4.346517562866e+00   4.267502784729e+00   4.320345401764e+00   4.470530033112e+00 
  4.767189979553e+00   0.000000000000e+00   0.000000000000e+00   2.821111917496e+00   2.824667453766e+00   2.820240259171e+00   2.804092407227e+00   2.751638889313e+00   2.726638078690e+00 
  2.756883382797e+00   2.940381050110e+00   3.248963832855e+00   3.303097963333e+00   3.511902332306e+00   3.616717338562e+00   3.632256984711e+00   3.609132528305e+00   3.580962181091e+00 
  3.624904870987e+00   3.720459699631e+00   3.862074851990e+00   0.000000000000e+00   0.000000000000e+00   2.530350208282e+00   2.536617279053e+00   2.526888847351e+00   2.504808664322e+00 
  2.484690904617e+00   2.484877824783e+00   2.512687444687e+00   2.563765525818e+00   2.662196397781e+00   2.747027397156e+00   2.845097064972e+00   2.903733730316e+00   2.926408767700e+00 
  2.926162004471e+00   2.928902626038e+00   2.956101179123e+00   3.006339311600e+00   3.061932802200e+00   0.000000000000e+00   0.000000000000e+00   2.411724567413e+00   2.403945922852e+00 
  2.384798526764e+00   2.360159873962e+00   2.335489273071e+00   2.317210435867e+00   2.322108030319e+00   2.345955133438e+00   2.376810550690e+00   2.408927917480e+00   2.440338611603e+00 
  2.455322742462e+00   2.471002101898e+00   2.489889383316e+00   2.512000322342e+00   2.538795232773e+00   2.565205812454e+00   2.585535287857e+00   0.000000000000e+00   0.000000000000e+00 