# vtk DataFile Version 2.0
Written using VisIt writer
ASCII
DATASET RECTILINEAR_GRID
DIMENSIONS 20 20 20
X_COORDINATES 20 float
  0.000000000000e+00   1.000000000000e+00   2.000000000000e+00   3.000000000000e+00   4.000000000000e+00   5.000000000000e+00   6.000000000000e+00   7.000000000000e+00   8.000000000000e+00 
  9.000000000000e+00   1.000000000000e+01   1.100000000000e+01   1.200000000000e+01   1.300000000000e+01   1.400000000000e+01   1.500000000000e+01   1.600000000000e+01   1.700000000000e+01 
  1.800000000000e+01   1.900000000000e+01 
Y_COORDINATES 20 float
  0.000000000000e+00   1.000000000000e+00   2.000000000000e+00   3.000000000000e+00   4.000000000000e+00   5.000000000000e+00   6.000000000000e+00   7.000000000000e+00   8.000000000000e+00 
  9.000000000000e+00   1.000000000000e+01   1.100000000000e+01   1.200000000000e+01   1.300000000000e+01   1.400000000000e+01   1.500000000000e+01   1.600000000000e+01   1.700000000000e+01 
  1.800000000000e+01   1.900000000000e+01 
Z_COORDINATES 20 float
  0.000000000000e+00   1.000000000000e+00   2.000000000000e+00   3.000000000000e+00   4.000000000000e+00   5.000000000000e+00   6.000000000000e+00   7.000000000000e+00   8.000000000000e+00 
  9.000000000000e+00   1.000000000000e+01   1.100000000000e+01   1.200000000000e+01   1.300000000000e+01   1.400000000000e+01   1.500000000000e+01   1.600000000000e+01   1.700000000000e+01 
  1.800000000000e+01   1.900000000000e+01 
CELL_DATA 6859
POINT_DATA 8000
SCALARS pressure float
LOOKUP_TABLE default
  0.000000000000e+00   0.000000000000e+00   0.000000000000e+00   0.000000000000e+00   0.000000000000e+00   0.000000000000e+00   0.000000000000e+00   0.000000000000e+00   0.000000000000e+00 
  0.000000000000e+00   0.000000000000e+00   0.000000000000e+00   0.000000000000e+00   0.000000000000e+00   0.000000000000e+00   0.000000000000e+00   0.000000000000e+00   0.000000000000e+00 
  0.000000000000e+00   0.000000000000e+00   0.000000000000e+00   0.000000000000e+00   0.000000000000e+00   0.000000000000e+00   0.000000000000e+00   0.000000000000e+00   0.000000000000e+00 
  0.000000000000e+00   0.000000000000e+00   0.000000000000e+00   0.000000000000e+00   0.000000000000e+00   0.000000000000e+00   0.000000000000e+00   0.000000000000e+00   0.000000000000e+00 
  0.000000000000e+00   0.000000000000e+00   0.000000000000e+00   0.000000000000e+00   0.000000000000e+00   0.000000000000e+00   0.000000000000e+00   0.000000000000e+00   0.000000000000e+00 
  0.000000000000e+00   0.000000000000e+00   0.000000000000e+00   0.000000000000e+00   0.000000000000e+00   0.000000000000e+00   0.000000000000e+00   0.000000000000e+00   0.000000000000e+00 
  0.000000000000e+00   0.000000000000e+00   0.000000000000e+00   0.000000000000e+00   0.000000000000e+00   0.000000000000e+00   0.000000000000e+00   0.000000000000e+00   0.000000000000e+00 
  0.000000000000e+00   0.000000000000e+00   0.000000000000e+00   0.000000000000e+00   0.000000000000e+00   0.000000000000e+00   0.000000000000e+00   0.000000000000e+00   0.000000000000e+00 
  0.000000000000e+00   0.000000000000e+00   0.000000000000e+00   0.000000000000e+00   0.000000000000e+00   0.000000000000e+00   0.000000000000e+00   0.000000000000e+00   0.000000000000e+00 
  0.000000000000e+00   0.000000000000e+00   0.000000000000e+00   0.000000000000e+00   0.000000000000e+00   0.000000000000e+00   0.000000000000e+00   0.000000000000e+00   0.000000000000e+00 
  0.000000000000e+00   0.000000000000e+00   0.000000000000e+00   0.000000000000e+00   0.000000000000e+00   0.000000000000e+00   0.000000000000e+00   0.000000000000e+00   0.000000000000e+00 
  0.000000000000e+00   0.000000000000e+00   0.000000000000e+00   0.000000000000e+00   0.000000000000e+00   0.000000000000e+00   0.000000000000e+00   0.000000000000e+00   0.000000000000e+00 
  0.000000000000e+00   0.000000000000e+00   0.000000000000e+00   0.000000000000e+00   0.000000000000e+00   0.000000000000e+00   0.000000000000e+00   0.000000000000e+00   0.000000000000e+00 
  0.000000000000e+00   0.000000000000e+00   0.000000000000e+00   0.000000000000e+00   0.000000000000e+00   0.000000000000e+00   0.000000000000e+00   0.000000000000e+00   0.000000000000e+00 
  0.000000000000e+00   0.000000000000e+00   0.000000000000e+00   0.000000000000e+00   0.000000000000e+00   0.000000000000e+00   0.000000000000e+00   0.000000000000e+00   0.000000000000e+00 
  0.000000000000e+00   0.000000000000e+00   0.000000000000e+00   0.000000000000e+00   0.000000000000e+00   0.000000000000e+00   0.000000000000e+00   0.000000000000e+00   0.000000000000e+00 
  0.000000000000e+00   0.000000000000e+00   0.000000000000e+00   0.000000000000e+00   0.000000000000e+00   0.000000000000e+00   0.000000000000e+00   0.000000000000e+00   0.000000000000e+00 
  0.000000000000e+00   0.000000000000e+00   0.000000000000e+00   0.000000000000e+00   0.000000000000e+00   0.000000000000e+00   0.000000000000e+00   0.000000000000e+00   0.000000000000e+00 
  0.000000000000e+00   0.000000000000e+00   0.000000000000e+00   0.000000000000e+00   0.000000000000e+00   0.000000000000e+00   0.000000000000e+00   0.000000000000e+00   0.000000000000e+00 
  0.000000000000e+00   0.000000000000e+00   0.000000000000e+00   0.000000000000e+00   0.000000000000e+00   0.000000000000e+00   0.000000000000e+00   0.000000000000e+00   0.000000000000e+00 
  0.000000000000e+00   0.000000000000e+00   0.000000000000e+00   0.000000000000e+00   0.000000000000e+00   0.000000000000e+00   0.000000000000e+00   0.000000000000e+00   0.000000000000e+00 
  0.000000000000e+00   0.000000000000e+00   0.000000000000e+00   0.000000000000e+00   0.000000000000e+00   0.000000000000e+00   0.000000000000e+00   0.000000000000e+00   0.000000000000e+00 
  0.000000000000e+00   0.000000000000e+00   0.000000000000e+00   0.000000000000e+00   0.000000000000e+00   0.000000000000e+00   0.000000000000e+00   0.000000000000e+00   0.000000000000e+00 
  0.000000000000e+00   0.000000000000e+00   0.000000000000e+00   0.000000000000e+00   0.000000000000e+00   0.000000000000e+00   0.000000000000e+00   0.000000000000e+00   0.000000000000e+00 
  0.000000000000e+00   0.000000000000e+00   0.000000000000e+00   0.000000000000e+00   0.000000000000e+00   0.000000000000e+00   0.000000000000e+00   0.000000000000e+00   0.000000000000e+00 
  0.000000000000e+00   0.000000000000e+00   0.000000000000e+00   0.000000000000e+00   0.000000000000e+00   0.000000000000e+00   0.000000000000e+00   0.000000000000e+00   0.000000000000e+00 
  0.000000000000e+00   0.000000000000e+00   0.000000000000e+00   0.000000000000e+00   0.000000000000e+00   0.000000000000e+00   0.000000000000e+00   0.000000000000e+00   0.000000000000e+00 
  0.000000000000e+00   0.000000000000e+00   0.000000000000e+00   0.000000000000e+00   0.000000000000e+00   0.000000000000e+00   0.000000000000e+00   0.000000000000e+00   0.000000000000e+00 
  0.000000000000e+00   0.000000000000e+00   0.000000000000e+00   0.000000000000e+00   0.000000000000e+00   0.000000000000e+00   0.000000000000e+00   0.000000000000e+00   0.000000000000e+00 
  0.000000000000e+00   0.000000000000e+00   0.000000000000e+00   0.000000000000e+00   0.000000000000e+00   0.000000000000e+00   0.000000000000e+00   0.000000000000e+00   0.000000000000e+00 
  0.000000000000e+00   0.000000000000e+00   0.000000000000e+00   0.000000000000e+00   0.000000000000e+00   0.000000000000e+00   0.000000000000e+00   0.000000000000e+00   0.000000000000e+00 
  0.000000000000e+00   0.000000000000e+00   0.000000000000e+00   0.000000000000e+00   0.000000000000e+00   0.000000000000e+00   0.000000000000e+00   0.000000000000e+00   0.000000000000e+00 
  0.000000000000e+00   0.000000000000e+00   0.000000000000e+00   0.000000000000e+00   0.000000000000e+00   0.000000000000e+00   0.000000000000e+00   0.000000000000e+00   0.000000000000e+00 
  0.000000000000e+00   0.000000000000e+00   0.000000000000e+00   0.000000000000e+00   0.000000000000e+00   0.000000000000e+00   0.000000000000e+00   0.000000000000e+00   0.000000000000e+00 
  0.000000000000e+00   0.000000000000e+00   0.000000000000e+00   0.000000000000e+00   0.000000000000e+00   0.000000000000e+00   0.000000000000e+00   0.000000000000e+00   0.000000000000e+00 
  0.000000000000e+00   0.000000000000e+00   0.000000000000e+00   0.000000000000e+00   0.000000000000e+00   0.000000000000e+00   0.000000000000e+00   0.000000000000e+00   0.000000000000e+00 
  0.000000000000e+00   0.000000000000e+00   0.000000000000e+00   0.000000000000e+00   0.000000000000e+00   0.000000000000e+00   0.000000000000e+00   0.000000000000e+00   0.000000000000e+00 
  0.000000000000e+00   0.000000000000e+00   0.000000000000e+00   0.000000000000e+00   0.000000000000e+00   0.000000000000e+00   0.000000000000e+00   0.000000000000e+00   0.000000000000e+00 
  0.000000000000e+00   0.000000000000e+00   0.000000000000e+00   0.000000000000e+00   0.000000000000e+00   0.000000000000e+00   0.000000000000e+00   0.000000000000e+00   0.000000000000e+00 
  0.000000000000e+00   0.000000000000e+00   0.000000000000e+00   0.000000000000e+00   0.000000000000e+00   0.000000000000e+00   0.000000000000e+00   0.000000000000e+00   0.000000000000e+00 
  0.000000000000e+00   0.000000000000e+00   0.000000000000e+00   0.000000000000e+00   0.000000000000e+00   0.000000000000e+00   0.000000000000e+00   0.000000000000e+00   0.000000000000e+00 
  0.000000000000e+00   0.000000000000e+00   0.000000000000e+00   0.000000000000e+00   0.000000000000e+00   0.000000000000e+00   0.000000000000e+00   0.000000000000e+00   0.000000000000e+00 
  0.000000000000e+00   0.000000000000e+00   0.000000000000e+00   0.000000000000e+00   0.000000000000e+00   0.000000000000e+00   0.000000000000e+00   0.000000000000e+00   0.000000000000e+00 
  0.000000000000e+00   0.000000000000e+00   0.000000000000e+00   0.000000000000e+00   0.000000000000e+00   0.000000000000e+00   0.000000000000e+00   0.000000000000e+00   0.000000000000e+00 
  0.000000000000e+00   0.000000000000e+00   0.000000000000e+00   0.000000000000e+00   0.000000000000e+00   0.000000000000e+00   0.000000000000e+00   0.000000000000e+00   0.000000000000e+00 
  0.000000000000e+00   0.000000000000e+00   0.000000000000e+00   0.000000000000e+00   0.000000000000e+00   0.000000000000e+00   0.000000000000e+00   0.000000000000e+00   0.000000000000e+00 
  0.000000000000e+00   0.000000000000e+00   0.000000000000e+00   0.000000000000e+00   0.000000000000e+00   0.000000000000e+00   0.000000000000e+00   4.560763835907e+00   4.589566707611e+00 
  4.626598358154e+00   4.669530868530e+00   4.694747924805e+00   4.693319320679e+00   4.703457355499e+00   4.705740928650e+00   4.749537467957e+00   4.767999649048e+00   4.821306705475e+00 
  4.870696067810e+00   4.919130802155e+00   4.936690330505e+00   4.937512874603e+00   4.920147418976e+00   4.878299236298e+00   4.930721282959e+00   0.000000000000e+00   0.000000000000e+00 
  4.630339145660e+00   4.654302120209e+00   4.730503082275e+00   4.801081180573e+00   4.819302558899e+00   4.795899391174e+00   4.773457050323e+00   4.757177352905e+00   4.769291877747e+00 
  4.816684722900e+00   4.876173496246e+00   4.949989795685e+00   5.007809162140e+00   5.027529239655e+00   5.033742427826e+00   5.018663406372e+00   4.992726802826e+00   5.037094116211e+00 
  0.000000000000e+00   0.000000000000e+00   4.709744930267e+00   4.733158588409e+00   4.771605968475e+00   4.847095966339e+00   4.895574092865e+00   4.884109497070e+00   4.840004920959e+00 
  4.821776390076e+00   4.860472202301e+00   4.918132781982e+00   4.968545913696e+00   5.021101951599e+00   5.083600521088e+00   5.122786998749e+00   5.159739971161e+00   5.168610095978e+00 
  5.165719509125e+00   5.219030380249e+00   0.000000000000e+00   0.000000000000e+00   4.748732566833e+00   4.769022941589e+00   4.920996189117e+00   5.343965530396e+00   5.223766326904e+00 
  4.935151100159e+00   4.855184555054e+00   4.891487121582e+00   4.870374679565e+00   4.936575889587e+00   5.014757156372e+00   5.107947349548e+00   5.182841300964e+00   5.213445663452e+00 
  5.277045249939e+00   5.283256530762e+00   5.273782253265e+00   5.319196224213e+00   0.000000000000e+00   0.000000000000e+00   5.020627021790e+00   5.051107406616e+00   5.433709144592e+00 
  6.564039707184e+00   6.212356090546e+00   5.325134754181e+00   5.134629726410e+00   5.372375965118e+00   5.146401405334e+00   5.172772884369e+00   5.249195575714e+00   5.329624176025e+00 
  5.414621353149e+00   5.443950176239e+00   5.491808891296e+00   5.529992580414e+00   5.535485267639e+00   5.590988636017e+00   0.000000000000e+00   0.000000000000e+00   5.474310398102e+00 
  5.495117664337e+00   5.529937267303e+00   5.756240844727e+00   5.681262016296e+00   5.442392349243e+00   5.346578121185e+00   5.421864032745e+00   5.463055133820e+00   5.519730567932e+00 
  5.566227436066e+00   5.639023303986e+00   5.719172477722e+00   5.787353038788e+00   5.790229320526e+00   5.815711021423e+00   5.839128971100e+00   5.908102035522e+00   0.000000000000e+00 
  0.000000000000e+00   5.820437908173e+00   5.788130760193e+00   5.818743228912e+00   5.763507366180e+00   5.683079242706e+00   5.593600749969e+00   5.640610218048e+00   5.548538684845e+00 
  5.598244190216e+00   5.667574882507e+00   5.786999225616e+00   5.898250579834e+00   5.993927955627e+00   6.047654628754e+00   6.052219867706e+00   6.030602455139e+00   6.032104492188e+00 
  6.105769157410e+00   0.000000000000e+00   0.000000000000e+00   6.530609607697e+00   6.463071346283e+00   6.538395404816e+00   6.298486709595e+00   6.106235980988e+00   5.941440105438e+00 
  5.984630584717e+00   5.915668964386e+00   5.989005565643e+00   6.089884281158e+00   6.162963390350e+00   6.258388519287e+00   6.306442260742e+00   6.281167030334e+00   6.224626064301e+00 
  6.213272094727e+00   6.279958724976e+00   6.382284164429e+00   0.000000000000e+00   0.000000000000e+00   7.260571956635e+00   7.165235519409e+00   6.985308647156e+00   6.759037494659e+00 
  6.375051021576e+00   5.767776966095e+00   5.930244445801e+00   6.110490798950e+00   6.286475181580e+00   6.332354068756e+00   6.491985321045e+00   6.602747917175e+00   6.673432826996e+00 
  6.614230632782e+00   6.293137073517e+00   6.138945102692e+00   6.453841209412e+00   6.521574020386e+00   0.000000000000e+00   0.000000000000e+00   8.399255752563e+00   8.310832023621e+00 
  8.636604309082e+00   7.798299789429e+00   6.748996734619e+00   5.169998645782e+00   6.324158191681e+00   6.670340538025e+00   6.742527961731e+00   6.905280590057e+00   7.076910972595e+00 
  7.222521305084e+00   7.272335052490e+00   7.051462173462e+00   6.402991294861e+00   5.377408981323e+00   6.736831188202e+00   7.070855617523e+00   0.000000000000e+00   0.000000000000e+00 
  9.437114715576e+00   9.266134262085e+00   1.015493488312e+01   8.652566909790e+00   6.637031555176e+00   1.855362653732e+00   6.172650814056e+00   7.014308929443e+00   6.905925750732e+00 
  6.961090087891e+00   7.101765632629e+00   7.311449050903e+00   7.473712444305e+00   7.099724769592e+00   5.763968944550e+00   9.970600128174e+00   6.812016963959e+00   7.597784042358e+00 
  0.000000000000e+00   0.000000000000e+00   8.402285575867e+00   8.355422973633e+00   8.459863662720e+00   7.356882572174e+00   6.053310871124e+00   4.715162754059e+00   6.111472606659e+00 
  6.626061916351e+00   6.829607009888e+00   7.023817062378e+00   7.283750534058e+00   7.645432949066e+00   7.812585830688e+00   7.706546306610e+00   7.002549171448e+00   5.879060745239e+00 
  7.074831008911e+00   7.419141292572e+00   0.000000000000e+00   0.000000000000e+00   8.069298744202e+00   7.905252456665e+00   7.641511917114e+00   6.979916095734e+00   5.164714813232e+00 
  5.361561775208e+00   6.246252059937e+00   7.512196540833e+00   6.982548713684e+00   6.979240894318e+00   7.308261394501e+00   7.791578292847e+00   8.167870521545e+00   8.469813346863e+00 
  7.819669246674e+00   7.214148998260e+00   7.296531677246e+00   7.483513832092e+00   0.000000000000e+00   0.000000000000e+00   7.911109924316e+00   7.489816665649e+00   6.914969444275e+00 
  6.088561058044e+00   9.817537307739e+00   4.495398521423e+00   6.144428730011e+00   8.356600761414e+00   6.786407470703e+00   6.550189971924e+00   7.071578979492e+00   7.531548023224e+00 
  8.755393981934e+00   9.138742446899e+00   8.405784606934e+00   7.896384239197e+00   7.680190086365e+00   7.259106159210e+00   0.000000000000e+00   0.000000000000e+00   8.033041000366e+00 
  7.331524848938e+00   5.901531696320e+00   5.936224460602e+00   4.529348850250e+00   4.700877666473e+00   4.406262874603e+00   4.980592250824e+00   4.829261302948e+00   6.036438465118e+00 
  6.943926811218e+00   7.641776084900e+00   8.300473213196e+00   8.720571517944e+00   8.456420898438e+00   8.098877906799e+00   7.827304840088e+00   7.979540824890e+00   0.000000000000e+00 
  0.000000000000e+00   8.216959953308e+00   7.577706813812e+00   6.667790889740e+00   6.209992885590e+00   5.578002452850e+00   5.259294509888e+00   4.956886768341e+00   5.089867591858e+00 
  5.329706192017e+00   6.046120643616e+00   6.760082244873e+00   7.358018875122e+00   7.835431098938e+00   8.112845420837e+00   8.120194435120e+00   8.010437965393e+00   7.899850845337e+00 
  7.975732326508e+00   0.000000000000e+00   0.000000000000e+00   8.569011688232e+00   8.014110565186e+00   7.302491188049e+00   6.861820220947e+00   6.447840690613e+00   6.140175342560e+00 
  5.987481594086e+00   5.947959423065e+00   6.244372844696e+00   6.796522140503e+00   7.258791446686e+00   7.771963596344e+00   8.105686187744e+00   8.213188171387e+00   8.181171417236e+00 
  8.111084938049e+00   8.127466201782e+00   8.140125274658e+00   0.000000000000e+00   0.000000000000e+00   8.251296997070e+00   7.610031127930e+00   7.055377006531e+00   6.464145183563e+00 
  5.979812145233e+00   5.638779640198e+00   5.384154796600e+00   5.464211463928e+00   5.619936943054e+00   5.965017318726e+00   6.460116386414e+00   6.751224994659e+00   7.039642333984e+00 
  7.341852664948e+00   7.552869319916e+00   7.633615016937e+00   7.551123619080e+00   7.516646862030e+00   0.000000000000e+00   0.000000000000e+00   0.000000000000e+00   0.000000000000e+00 
  0.000000000000e+00   0.000000000000e+00   0.000000000000e+00   0.000000000000e+00   0.000000000000e+00   0.000000000000e+00   0.000000000000e+00   0.000000000000e+00   0.000000000000e+00 
  0.000000000000e+00   0.000000000000e+00   0.000000000000e+00   0.000000000000e+00   0.000000000000e+00   0.000000000000e+00   0.000000000000e+00   0.000000000000e+00   0.000000000000e+00 
  0.000000000000e+00   0.000000000000e+00   0.000000000000e+00   0.000000000000e+00   0.000000000000e+00   0.000000000000e+00   0.000000000000e+00   0.000000000000e+00   0.000000000000e+00 
  0.000000000000e+00   0.000000000000e+00   0.000000000000e+00   0.000000000000e+00   0.000000000000e+00   0.000000000000e+00   0.000000000000e+00   0.000000000000e+00   0.000000000000e+00 
  0.000000000000e+00   0.000000000000e+00   3.382956981659e+00   3.465851068497e+00   3.530137300491e+00   3.568472146988e+00   3.590345621109e+00   3.616039752960e+00   3.601952791214e+00 
  3.576435565948e+00   3.625875949860e+00   3.692286968231e+00   3.754239320755e+00   3.824169158936e+00   3.875028133392e+00   3.874481678009e+00   3.820911645889e+00   3.725714206696e+00 
  3.660978317261e+00   3.722155094147e+00   0.000000000000e+00   0.000000000000e+00   3.455592632294e+00   3.520729064941e+00   3.606988430023e+00   3.661203861237e+00   3.663277864456e+00 
  3.646528005600e+00   3.618410825729e+00   3.617531061172e+00   3.629757404327e+00   3.709187507629e+00   3.787670612335e+00   3.869433641434e+00   3.926498413086e+00   3.948387622833e+00 
  3.931988716125e+00   3.874508619308e+00   3.826009511948e+00   3.870459556580e+00   0.000000000000e+00   0.000000000000e+00   3.569685935974e+00   3.625411748886e+00   3.687421560287e+00 
  3.725780010223e+00   3.758298635483e+00   3.788573980331e+00   3.728320598602e+00   3.606504678726e+00   3.630039691925e+00   3.750407695770e+00   3.880874633789e+00   3.967679738998e+00 
  4.045430183411e+00   4.081800937653e+00   4.095134735107e+00   4.091721534729e+00   4.071213245392e+00   4.130239486694e+00   0.000000000000e+00   0.000000000000e+00   3.634598016739e+00 
  3.638076543808e+00   3.669664859772e+00   3.820950984955e+00   3.838938236237e+00   3.849793434143e+00   3.757878065109e+00   3.673726320267e+00   3.670508146286e+00   3.776046991348e+00 
  3.889673233032e+00   3.959879398346e+00   4.032135486603e+00   4.108013153076e+00   4.163869857788e+00   4.184455394745e+00   4.176100730896e+00   4.227658271790e+00   0.000000000000e+00 
  0.000000000000e+00   3.721027135849e+00   3.807872772217e+00   3.893851757050e+00   4.273789405823e+00   4.149959087372e+00   4.026023387909e+00   3.952993869781e+00   3.934959173203e+00 
  3.867543220520e+00   3.947215557098e+00   4.047649383545e+00   4.141746044159e+00   4.220911026001e+00   4.317353725433e+00   4.398725509644e+00   4.457136631012e+00   4.472423553467e+00 
  4.527781486511e+00   0.000000000000e+00   0.000000000000e+00   4.358956813812e+00   4.275074958801e+00   4.200798988342e+00   4.414035797119e+00   4.327416896820e+00   4.222786426544e+00 
  4.142072677612e+00   4.284724235535e+00   4.349947929382e+00   4.281709194183e+00   4.357106208801e+00   4.484931945801e+00   4.596388816833e+00   4.676517486572e+00   4.717022418976e+00 
  4.762413978577e+00   4.764897346497e+00   4.815060615540e+00   0.000000000000e+00   0.000000000000e+00   4.703623771667e+00   4.674269199371e+00   4.966219425201e+00   4.681150436401e+00 
  4.632281303406e+00   4.761686325073e+00   4.829591751099e+00   4.492627620697e+00   4.564620494843e+00   4.621740341187e+00   4.762013912201e+00   4.907808780670e+00   5.025606632233e+00 
  5.090363502502e+00   5.101007461548e+00   5.100291252136e+00   5.120635032654e+00   5.187256336212e+00   0.000000000000e+00   0.000000000000e+00   5.374844551086e+00   5.399016380310e+00 
  5.941433429718e+00   5.267870903015e+00   5.062622547150e+00   5.296806335449e+00   5.513278484344e+00   4.944248199463e+00   4.882616043091e+00   4.965494155884e+00   5.040576934814e+00 
  5.165236473083e+00   5.272942543030e+00   5.332962512970e+00   5.291710853577e+00   5.241634368896e+00   5.259971618652e+00   5.355966091156e+00   0.000000000000e+00   0.000000000000e+00 
  6.210432529449e+00   6.112964153290e+00   6.024925231934e+00   5.771659851074e+00   5.702434539795e+00   5.260375976562e+00   5.138169288635e+00   5.174198627472e+00   5.384177684784e+00 
  5.564120769501e+00   5.629672050476e+00   5.662999629974e+00   5.666267395020e+00   5.573655128479e+00   5.389355182648e+00   5.326485633850e+00   5.444602966309e+00   5.589780330658e+00 
  0.000000000000e+00   0.000000000000e+00   6.790979385376e+00   6.780261039734e+00   6.893916606903e+00   6.471206188202e+00   5.906605720520e+00   5.170078754425e+00   5.433196544647e+00 
  5.557759761810e+00   5.745636940002e+00   5.938265323639e+00   6.060410499573e+00   6.274508953094e+00   6.332197189331e+00   6.003264427185e+00   5.738451004028e+00   5.519190788269e+00 
  6.039528369904e+00   6.170186996460e+00   0.000000000000e+00   0.000000000000e+00   7.362860202789e+00   7.345741748810e+00   7.754296302795e+00   7.079604148865e+00   6.032032966614e+00 
  4.538066864014e+00   5.582387924194e+00   5.871377944946e+00   5.931396007538e+00   6.084219455719e+00   6.295509815216e+00   6.577232360840e+00   6.788936138153e+00   6.393051147461e+00 
  5.669989585876e+00   4.941741943359e+00   6.177778244019e+00   6.362506389618e+00   0.000000000000e+00   0.000000000000e+00   7.111145019531e+00   7.001791477203e+00   6.828431606293e+00 
  6.222409248352e+00   5.477001190186e+00   4.917479991913e+00   5.331286430359e+00   5.623154640198e+00   5.797638416290e+00   6.062983036041e+00   6.364284992218e+00   6.778267860413e+00 
  7.100718021393e+00   6.871265411377e+00   6.337804794312e+00   5.899116516113e+00   6.275710582733e+00   6.355910778046e+00   0.000000000000e+00   0.000000000000e+00   7.005620479584e+00 
  6.738099575043e+00   6.349289417267e+00   5.973835945129e+00   5.143420219421e+00   4.913147926331e+00   4.974501132965e+00   5.537539005280e+00   5.562007904053e+00   5.932076454163e+00 
  6.422284603119e+00   6.800124168396e+00   7.693695545197e+00   7.867138862610e+00   7.138300895691e+00   6.734397888184e+00   6.765611648560e+00   6.275063037872e+00   0.000000000000e+00 
  0.000000000000e+00   7.110187530518e+00   6.449146270752e+00   5.367700099945e+00   5.584436416626e+00   4.344256877899e+00   4.543071746826e+00   4.088266372681e+00   4.878606319427e+00 
  4.644554138184e+00   5.651694774628e+00   6.556998252869e+00   7.027568340302e+00   8.961742401123e+00   9.210369110107e+00   7.974525928497e+00   7.748643875122e+00   7.541526794434e+00 
  6.355752468109e+00   0.000000000000e+00   0.000000000000e+00   7.540513038635e+00   5.981221675873e+00   7.015533447266e+00   4.425167083740e+00   4.255084991455e+00   3.533182144165e+00 
  3.019815444946e+00   3.158768415451e+00   3.629521131516e+00   4.449805259705e+00   5.867375850677e+00   6.621303558350e+00   7.483487606049e+00   7.997437000275e+00   7.496977329254e+00 
  7.103005409241e+00   6.853216648102e+00   6.674071788788e+00   0.000000000000e+00   0.000000000000e+00   8.795141220093e+00   6.999763011932e+00   5.207801818848e+00   5.211818218231e+00 
  4.806391716003e+00   4.282755374908e+00   3.421528577805e+00   3.355911731720e+00   3.670421123505e+00   4.909404277802e+00   5.762756347656e+00   6.384044170380e+00   6.872096538544e+00 
  7.145074367523e+00   7.106245994568e+00   6.968321800232e+00   6.842496871948e+00   6.859895229340e+00   0.000000000000e+00   0.000000000000e+00   8.206561088562e+00   7.253856658936e+00 
  6.336525440216e+00   5.938529968262e+00   5.589506149292e+00   5.273793697357e+00   5.001813411713e+00   5.005106449127e+00   5.223117351532e+00   5.790990352631e+00   6.299538612366e+00 
  6.747733116150e+00   7.051746845245e+00   7.168718338013e+00   7.136059284210e+00   7.063725948334e+00   7.024167060852e+00   7.021503448486e+00   0.000000000000e+00   0.000000000000e+00 
  7.219779491425e+00   6.763497352600e+00   6.137474536896e+00   5.550574779510e+00   5.059890270233e+00   4.698608875275e+00   4.480772972107e+00   4.467139720917e+00   4.674238681793e+00 
  5.019881725311e+00   5.460724353790e+00   5.806892395020e+00   6.140904426575e+00   6.407832622528e+00   6.605777263641e+00   6.686415672302e+00   6.629734039307e+00   6.617655754089e+00 
  0.000000000000e+00   0.000000000000e+00   0.000000000000e+00   0.000000000000e+00   0.000000000000e+00   0.000000000000e+00   0.000000000000e+00   0.000000000000e+00   0.000000000000e+00 
  0.000000000000e+00   0.000000000000e+00   0.000000000000e+00   0.000000000000e+00   0.000000000000e+00   0.000000000000e+00   0.000000000000e+00   0.000000000000e+00   0.000000000000e+00 
  0.000000000000e+00   0.000000000000e+00   0.000000000000e+00   0.000000000000e+00   0.000000000000e+00   0.000000000000e+00   0.000000000000e+00   0.000000000000e+00   0.000000000000e+00 
  0.000000000000e+00   0.000000000000e+00   0.000000000000e+00   0.000000000000e+00   0.000000000000e+00   0.000000000000e+00   0.000000000000e+00   0.000000000000e+00   0.000000000000e+00 
  0.000000000000e+00   0.000000000000e+00   0.000000000000e+00   0.000000000000e+00   0.000000000000e+00   0.000000000000e+00   2.149035692215e+00   2.310568094254e+00   2.364539623260e+00 
  2.425364971161e+00   2.453601360321e+00   2.458573579788e+00   2.448032855988e+00   2.519278049469e+00   2.512755393982e+00   2.556584119797e+00   2.608760118484e+00   2.690397739410e+00 
  2.802985191345e+00   2.739098310471e+00   2.628058671951e+00   2.426087856293e+00   2.293950796127e+00   2.373398542404e+00   0.000000000000e+00   0.000000000000e+00   2.264100313187e+00 
  2.294175148010e+00   2.375246047974e+00   2.475123882294e+00   2.508246660233e+00   2.537535905838e+00   2.551348924637e+00   2.486993074417e+00   2.539040327072e+00   2.562450170517e+00 
  2.621365308762e+00   2.690764904022e+00   2.734691381454e+00   2.729405403137e+00   2.665417194366e+00   2.580421686172e+00   2.473505496979e+00   2.504771232605e+00   0.000000000000e+00 
  0.000000000000e+00   2.232188940048e+00   2.344141483307e+00   2.491756677628e+00   2.552323341370e+00   2.566630125046e+00   2.620670080185e+00   2.461648225784e+00   2.340619802475e+00 
  2.265283823013e+00   2.582445621490e+00   2.655553579330e+00   2.768310785294e+00   2.827415943146e+00   2.842397689819e+00   2.841579914093e+00   2.820386886597e+00   2.789568901062e+00 
  2.842190504074e+00   0.000000000000e+00   0.000000000000e+00   2.486239671707e+00   2.499865770340e+00   2.502538204193e+00   2.584589242935e+00   2.636989831924e+00   2.801913022995e+00 
  2.705044031143e+00   2.500121355057e+00   2.459210157394e+00   2.711141109467e+00   2.740168094635e+00   2.863613843918e+00   2.935995578766e+00   3.023647308350e+00   3.073757410049e+00 
  3.113881826401e+00   3.095585584641e+00   3.153336048126e+00   0.000000000000e+00   0.000000000000e+00   2.585376024246e+00   2.648183584213e+00   2.714704990387e+00   2.927137613297e+00 
  2.826983213425e+00   3.061746835709e+00   2.923395633698e+00   2.843632221222e+00   2.753448963165e+00   2.829598426819e+00   2.890327930450e+00   2.988839864731e+00   3.125379085541e+00 
  3.278590440750e+00   3.402720451355e+00   3.474057435989e+00   3.482408761978e+00   3.548397064209e+00   0.000000000000e+00   0.000000000000e+00   2.888150691986e+00   2.813416957855e+00 
  3.067541599274e+00   3.527995824814e+00   3.196889638901e+00   3.041921138763e+00   2.926020145416e+00   3.105492591858e+00   3.420078039169e+00   2.967274188995e+00   3.074216604233e+00 
  3.186170101166e+00   3.429164409637e+00   3.579465389252e+00   3.684645891190e+00   3.762339115143e+00   3.789063692093e+00   3.874355077744e+00   0.000000000000e+00   0.000000000000e+00 