# vtk DataFile Version 2.0
Written using VisIt writer
ASCII
DATASET RECTILINEAR_GRID
DIMENSIONS 20 20 20
X_COORDINATES 20 float
  0.000000000000e+00   1.000000000000e+00   2.000000000000e+00   3.000000000000e+00   4.000000000000e+00   5.000000000000e+00   6.000000000000e+00   7.000000000000e+00   8.000000000000e+00 
  9.000000000000e+00   1.000000000000e+01   1.100000000000e+01   1.200000000000e+01   1.300000000000e+01   1.400000000000e+01   1.500000000000e+01   1.600000000000e+01   1.700000000000e+01 
  1.800000000000e+01   1.900000000000e+01 
Y_COORDINATES 20 float
  0.000000000000e+00   1.000000000000e+00   2.000000000000e+00   3.000000000000e+00   4.000000000000e+00   5.000000000000e+00   6.000000000000e+00   7.000000000000e+00   8.000000000000e+00 
  9.000000000000e+00   1.000000000000e+01   1.100000000000e+01   1.200000000000e+01   1.300000000000e+01   1.400000000000e+01   1.500000000000e+01   1.600000000000e+01   1.700000000000e+01 
  1.800000000000e+01   1.900000000000e+01 
Z_COORDINATES 20 float
  0.000000000000e+00   1.000000000000e+00   2.000000000000e+00   3.000000000000e+00   4.000000000000e+00   5.000000000000e+00   6.000000000000e+00   7.000000000000e+00   8.000000000000e+00 
  9.000000000000e+00   1.000000000000e+01   1.100000000000e+01   1.200000000000e+01   1.300000000000e+01   1.400000000000e+01   1.500000000000e+01   1.600000000000e+01   1.700000000000e+01 
  1.800000000000e+01   1.900000000000e+01 
CELL_DATA 6859
POINT_DATA 8000
SCALARS pressure float
LOOKUP_TABLE default
  0.000000000000e+00   0.000000000000e+00   0.000000000000e+00   0.000000000000e+00   0.000000000000e+00   0.000000000000e+00   0.000000000000e+00   0.000000000000e+00   0.000000000000e+00 
  0.000000000000e+00   0.000000000000e+00   0.000000000000e+00   0.000000000000e+00   0.000000000000e+00   0.000000000000e+00   0.000000000000e+00   0.000000000000e+00   0.000000000000e+00 
  0.000000000000e+00   0.000000000000e+00   0.000000000000e+00   0.000000000000e+00   0.000000000000e+00   0.000000000000e+00   0.000000000000e+00   0.000000000000e+00   0.000000000000e+00 
  0.000000000000e+00   0.000000000000e+00   0.000000000000e+00   0.000000000000e+00   0.000000000000e+00   0.000000000000e+00   0.000000000000e+00   0.000000000000e+00   0.000000000000e+00 
  0.000000000000e+00   0.000000000000e+00   0.000000000000e+00   0.000000000000e+00   0.000000000000e+00   0.000000000000e+00   0.000000000000e+00   0.000000000000e+00   0.000000000000e+00 
  0.000000000000e+00   0.000000000000e+00   0.000000000000e+00   0.000000000000e+00   0.000000000000e+00   0.000000000000e+00   0.000000000000e+00   0.000000000000e+00   0.000000000000e+00 
  0.000000000000e+00   0.000000000000e+00   0.000000000000e+00   0.000000000000e+00   0.000000000000e+00   0.000000000000e+00   0.000000000000e+00   0.000000000000e+00   0.000000000000e+00 
  0.000000000000e+00   0.000000000000e+00   0.000000000000e+00   0.000000000000e+00   0.000000000000e+00   0.000000000000e+00   0.000000000000e+00   0.000000000000e+00   0.000000000000e+00 
  0.000000000000e+00   0.000000000000e+00   0.000000000000e+00   0.000000000000e+00   0.000000000000e+00   0.000000000000e+00   0.000000000000e+00   0.000000000000e+00   0.000000000000e+00 
  0.000000000000e+00   0.000000000000e+00   0.000000000000e+00   0.000000000000e+00   0.000000000000e+00   0.000000000000e+00   0.000000000000e+00   0.000000000000e+00   0.000000000000e+00 
  0.000000000000e+00   0.000000000000e+00   0.000000000000e+00   0.000000000000e+00   0.000000000000e+00   0.000000000000e+00   0.000000000000e+00   0.000000000000e+00   0.000000000000e+00 
  0.000000000000e+00   0.000000000000e+00   0.000000000000e+00   0.000000000000e+00   0.000000000000e+00   0.000000000000e+00   0.000000000000e+00   0.000000000000e+00   0.000000000000e+00 
  0.000000000000e+00   0.000000000000e+00   0.000000000000e+00   0.000000000000e+00   0.000000000000e+00   0.000000000000e+00   0.000000000000e+00   0.000000000000e+00   0.000000000000e+00 
  0.000000000000e+00   0.000000000000e+00   0.000000000000e+00   0.000000000000e+00   0.000000000000e+00   0.000000000000e+00   0.000000000000e+00   0.000000000000e+00   0.000000000000e+00 
  0.000000000000e+00   0.000000000000e+00   0.000000000000e+00   0.000000000000e+00   0.000000000000e+00   0.000000000000e+00   0.000000000000e+00   0.000000000000e+00   0.000000000000e+00 
  0.000000000000e+00   0.000000000000e+00   0.000000000000e+00   0.000000000000e+00   0.000000000000e+00   0.000000000000e+00   0.000000000000e+00   0.000000000000e+00   0.000000000000e+00 
  0.000000000000e+00   0.000000000000e+00   0.000000000000e+00   0.000000000000e+00   0.000000000000e+00   0.000000000000e+00   0.000000000000e+00   0.000000000000e+00   0.000000000000e+00 
  0.000000000000e+00   0.000000000000e+00   0.000000000000e+00   0.000000000000e+00   0.000000000000e+00   0.000000000000e+00   0.000000000000e+00   0.000000000000e+00   0.000000000000e+00 
  0.000000000000e+00   0.000000000000e+00   0.000000000000e+00   0.000000000000e+00   0.000000000000e+00   0.000000000000e+00   0.000000000000e+00   0.000000000000e+00   0.000000000000e+00 
  0.000000000000e+00   0.000000000000e+00   0.000000000000e+00   0.000000000000e+00   0.000000000000e+00   0.000000000000e+00   0.000000000000e+00   0.000000000000e+00   0.000000000000e+00 
  0.000000000000e+00   0.000000000000e+00   0.000000000000e+00   0.000000000000e+00   0.000000000000e+00   0.000000000000e+00   0.000000000000e+00   0.000000000000e+00   0.000000000000e+00 
  0.000000000000e+00   0.000000000000e+00   0.000000000000e+00   0.000000000000e+00   0.000000000000e+00   0.000000000000e+00   0.000000000000e+00   0.000000000000e+00   0.000000000000e+00 
  0.000000000000e+00   0.000000000000e+00   0.000000000000e+00   0.000000000000e+00   0.000000000000e+00   0.000000000000e+00   0.000000000000e+00   0.000000000000e+00   0.000000000000e+00 
  0.000000000000e+00   0.000000000000e+00   0.000000000000e+00   0.000000000000e+00   0.000000000000e+00   0.000000000000e+00   0.000000000000e+00   0.000000000000e+00   0.000000000000e+00 
  0.000000000000e+00   0.000000000000e+00   0.000000000000e+00   0.000000000000e+00   0.000000000000e+00   0.000000000000e+00   0.000000000000e+00   0.000000000000e+00   0.000000000000e+00 
  0.000000000000e+00   0.000000000000e+00   0.000000000000e+00   0.000000000000e+00   0.000000000000e+00   0.000000000000e+00   0.000000000000e+00   0.000000000000e+00   0.000000000000e+00 
  0.000000000000e+00   0.000000000000e+00   0.000000000000e+00   0.000000000000e+00   0.000000000000e+00   0.000000000000e+00   0.000000000000e+00   0.000000000000e+00   0.000000000000e+00 
  0.000000000000e+00   0.000000000000e+00   0.000000000000e+00   0.000000000000e+00   0.000000000000e+00   0.000000000000e+00   0.000000000000e+00   0.000000000000e+00   0.000000000000e+00 
  0.000000000000e+00   0.000000000000e+00   0.000000000000e+00   0.000000000000e+00   0.000000000000e+00   0.000000000000e+00   0.000000000000e+00   0.000000000000e+00   0.000000000000e+00 
  0.000000000000e+00   0.000000000000e+00   0.000000000000e+00   0.000000000000e+00   0.000000000000e+00   0.000000000000e+00   0.000000000000e+00   0.000000000000e+00   0.000000000000e+00 
  0.000000000000e+00   0.000000000000e+00   0.000000000000e+00   0.000000000000e+00   0.000000000000e+00   0.000000000000e+00   0.000000000000e+00   0.000000000000e+00   0.000000000000e+00 
  0.000000000000e+00   0.000000000000e+00   0.000000000000e+00   0.000000000000e+00   0.000000000000e+00   0.000000000000e+00   0.000000000000e+00   0.000000000000e+00   0.000000000000e+00 
  0.000000000000e+00   0.000000000000e+00   0.000000000000e+00   0.000000000000e+00   0.000000000000e+00   0.000000000000e+00   0.000000000000e+00   0.000000000000e+00   0.000000000000e+00 
  0.000000000000e+00   0.000000000000e+00   0.000000000000e+00   0.000000000000e+00   0.000000000000e+00   0.000000000000e+00   0.000000000000e+00   0.000000000000e+00   0.000000000000e+00 
  0.000000000000e+00   0.000000000000e+00   0.000000000000e+00   0.000000000000e+00   0.000000000000e+00   0.000000000000e+00   0.000000000000e+00   0.000000000000e+00   0.000000000000e+00 
  0.000000000000e+00   0.000000000000e+00   0.000000000000e+00   0.000000000000e+00   0.000000000000e+00   0.000000000000e+00   0.000000000000e+00   0.000000000000e+00   0.000000000000e+00 
  0.000000000000e+00   0.000000000000e+00   0.000000000000e+00   0.000000000000e+00   0.000000000000e+00   0.000000000000e+00   0.000000000000e+00   0.000000000000e+00   0.000000000000e+00 
  0.000000000000e+00   0.000000000000e+00   0.000000000000e+00   0.000000000000e+00   0.000000000000e+00   0.000000000000e+00   0.000000000000e+00   0.000000000000e+00   0.000000000000e+00 
  0.000000000000e+00   0.000000000000e+00   0.000000000000e+00   0.000000000000e+00   0.000000000000e+00   0.000000000000e+00   0.000000000000e+00   0.000000000000e+00   0.000000000000e+00 
  0.000000000000e+00   0.000000000000e+00   0.000000000000e+00   0.000000000000e+00   0.000000000000e+00   0.000000000000e+00   0.000000000000e+00   0.000000000000e+00   0.000000000000e+00 
  0.000000000000e+00   0.000000000000e+00   0.000000000000e+00   0.000000000000e+00   0.000000000000e+00   0.000000000000e+00   0.000000000000e+00   0.000000000000e+00   0.000000000000e+00 
  0.000000000000e+00   0.000000000000e+00   0.000000000000e+00   0.000000000000e+00   0.000000000000e+00   0.000000000000e+00   0.000000000000e+00   0.000000000000e+00   0.000000000000e+00 
  0.000000000000e+00   0.000000000000e+00   0.000000000000e+00   0.000000000000e+00   0.000000000000e+00   0.000000000000e+00   0.000000000000e+00   0.000000000000e+00   0.000000000000e+00 
  0.000000000000e+00   0.000000000000e+00   0.000000000000e+00   0.000000000000e+00   0.000000000000e+00   0.000000000000e+00   0.000000000000e+00   0.000000000000e+00   0.000000000000e+00 
  0.000000000000e+00   0.000000000000e+00   0.000000000000e+00   0.000000000000e+00   0.000000000000e+00   0.000000000000e+00   0.000000000000e+00   0.000000000000e+00   0.000000000000e+00 
  0.000000000000e+00   0.000000000000e+00   0.000000000000e+00   0.000000000000e+00   0.000000000000e+00   0.000000000000e+00   0.000000000000e+00   0.000000000000e+00   0.000000000000e+00 
  0.000000000000e+00   0.000000000000e+00   0.000000000000e+00   0.000000000000e+00   0.000000000000e+00   0.000000000000e+00   0.000000000000e+00   1.032712364197e+01   1.032722473145e+01 
  1.032742214203e+01   1.032770633698e+01   1.032806301117e+01   1.032847785950e+01   1.032893085480e+01   1.032940483093e+01   1.032988166809e+01   1.033034706116e+01   1.033078861237e+01 
  1.033119678497e+01   1.033156108856e+01   1.033187675476e+01   1.033212947845e+01   1.033234882355e+01   1.033240699768e+01   1.033270645142e+01   0.000000000000e+00   0.000000000000e+00 
  1.027106952667e+01   1.027117824554e+01   1.027138805389e+01   1.027169132233e+01   1.027207279205e+01   1.027251434326e+01   1.027299690247e+01   1.027349948883e+01   1.027400398254e+01 
  1.027449512482e+01   1.027495956421e+01   1.027538776398e+01   1.027577018738e+01   1.027610111237e+01   1.027636718750e+01   1.027659702301e+01   1.027665901184e+01   1.027696990967e+01 
  0.000000000000e+00   0.000000000000e+00   1.017405891418e+01   1.017415332794e+01   1.017433643341e+01   1.017460346222e+01   1.017494583130e+01   1.017534923553e+01   1.017579746246e+01 
  1.017627143860e+01   1.017675304413e+01   1.017722702026e+01   1.017767906189e+01   1.017809867859e+01   1.017847537994e+01   1.017880249023e+01   1.017906379700e+01   1.017929267883e+01 
  1.017934608459e+01   1.017967891693e+01   0.000000000000e+00   0.000000000000e+00   9.971323013306e+00   9.971463203430e+00   9.971737861633e+00   9.972136497498e+00   9.972639083862e+00 
  9.973217010498e+00   9.973841667175e+00   9.974480628967e+00   9.975110054016e+00   9.975712776184e+00   9.976276397705e+00   9.976791381836e+00   9.977250099182e+00   9.977645874023e+00 
  9.977962493896e+00   9.978237152100e+00   9.978305816650e+00   9.978690147400e+00   0.000000000000e+00   0.000000000000e+00   9.767412185669e+00   9.767554283142e+00   9.767831802368e+00 
  9.768243789673e+00   9.768771171570e+00   9.769388198853e+00   9.770055770874e+00   9.770738601685e+00   9.771407127380e+00   9.772046089172e+00   9.772644042969e+00   9.773192405701e+00 
  9.773680686951e+00   9.774101257324e+00   9.774431228638e+00   9.774721145630e+00   9.774775505066e+00   9.775221824646e+00   0.000000000000e+00   0.000000000000e+00   9.375710487366e+00 
  9.375911712646e+00   9.376315116882e+00   9.376916885376e+00   9.377687454224e+00   9.378573417664e+00   9.379505157471e+00   9.380422592163e+00   9.381286621094e+00   9.382082939148e+00 
  9.382813453674e+00   9.383476257324e+00   9.384061813354e+00   9.384558677673e+00   9.384942054749e+00   9.385274887085e+00   9.385323524475e+00   9.385873794556e+00   0.000000000000e+00 
  0.000000000000e+00   8.982918739319e+00   8.982979774475e+00   8.983139991760e+00   8.983463287354e+00   8.983954429626e+00   8.984585762024e+00   8.985301971436e+00   8.986043930054e+00 
  8.986768722534e+00   8.987459182739e+00   8.988120079041e+00   8.988749504089e+00   8.989318847656e+00   8.989793777466e+00   8.990134239197e+00   8.990420341492e+00   8.990378379822e+00 
  8.991047859192e+00   0.000000000000e+00   0.000000000000e+00   8.439769744873e+00   8.440104484558e+00   8.440789222717e+00   8.441829681396e+00   8.443181037903e+00   8.444674491882e+00 
  8.446083068848e+00   8.447283744812e+00   8.448266029358e+00   8.449078559875e+00   8.449820518494e+00   8.450541496277e+00   8.451192855835e+00   8.451707839966e+00   8.452037811279e+00 
  8.452295303345e+00   8.452149391174e+00   8.453022003174e+00   0.000000000000e+00   0.000000000000e+00   7.681570529938e+00   7.682946681976e+00   7.685513973236e+00   7.688683986664e+00 
  7.692105770111e+00   7.695348739624e+00   7.697954177856e+00   7.699843406677e+00   7.701183795929e+00   7.702118873596e+00   7.702919006348e+00   7.703767299652e+00   7.704561710358e+00 
  7.705159187317e+00   7.705492973328e+00   7.705690383911e+00   7.705350875854e+00   7.706499099731e+00   0.000000000000e+00   0.000000000000e+00   6.753910064697e+00   6.754201412201e+00 
  6.755300521851e+00   6.756381511688e+00   6.757046222687e+00   6.757141590118e+00   6.756847381592e+00   6.756548404694e+00   6.756494045258e+00   6.756338119507e+00   6.756356239319e+00 
  6.756942272186e+00   6.757678031921e+00   6.758144855499e+00   6.758270263672e+00   6.758091926575e+00   6.757153511047e+00   6.758463859558e+00   0.000000000000e+00   0.000000000000e+00 
  5.757129192352e+00   5.753484249115e+00   5.748812198639e+00   5.743927955627e+00   5.738635540009e+00   5.732929229736e+00   5.727635383606e+00   5.723663330078e+00   5.721834182739e+00 
  5.720077991486e+00   5.719028472900e+00   5.719644546509e+00   5.720454692841e+00   5.720584392548e+00   5.720412731171e+00   5.719727039337e+00   5.717950820923e+00   5.719362258911e+00 
  0.000000000000e+00   0.000000000000e+00   4.514079570770e+00   4.508674621582e+00   4.499491691589e+00   4.489049911499e+00   4.480296611786e+00   4.470336914062e+00   4.462180614471e+00 
  4.455082416534e+00   4.452363967896e+00   4.450218677521e+00   4.450701713562e+00   4.452332973480e+00   4.453131675720e+00   4.452332973480e+00   4.452290058136e+00   4.451918601990e+00 
  4.450189590454e+00   4.451869010925e+00   0.000000000000e+00   0.000000000000e+00   2.760707616806e+00   2.751919269562e+00   2.741786956787e+00   2.736782073975e+00   2.736726284027e+00 
  2.729943513870e+00   2.724221706390e+00   2.720751285553e+00   2.722286701202e+00   2.718873739243e+00   2.718269824982e+00   2.724486351013e+00   2.726447343826e+00   2.723462104797e+00 
  2.721729755402e+00   2.721090555191e+00   2.719863176346e+00   2.721625566483e+00   0.000000000000e+00   0.000000000000e+00   1.396067738533e+00   1.403202295303e+00   1.413691401482e+00 
  1.419902205467e+00   1.418026804924e+00   1.421691179276e+00   1.423982739449e+00   1.423822879791e+00   1.422797560692e+00   1.421906590462e+00   1.421331644058e+00   1.421506524086e+00 
  1.422155261040e+00   1.422238707542e+00   1.421959996223e+00   1.421895623207e+00   1.421564340591e+00   1.423074960709e+00   0.000000000000e+00   0.000000000000e+00   0.000000000000e+00 
  0.000000000000e+00   0.000000000000e+00   0.000000000000e+00   0.000000000000e+00   0.000000000000e+00   0.000000000000e+00   0.000000000000e+00   0.000000000000e+00   0.000000000000e+00 
  0.000000000000e+00   0.000000000000e+00   0.000000000000e+00   0.000000000000e+00   0.000000000000e+00   0.000000000000e+00   0.000000000000e+00   0.000000000000e+00   0.000000000000e+00 
  0.000000000000e+00   0.000000000000e+00   0.000000000000e+00   0.000000000000e+00   0.000000000000e+00   0.000000000000e+00   0.000000000000e+00   0.000000000000e+00   0.000000000000e+00 
  0.000000000000e+00   0.000000000000e+00   0.000000000000e+00   0.000000000000e+00   0.000000000000e+00   0.000000000000e+00   0.000000000000e+00   0.000000000000e+00   0.000000000000e+00 
  0.000000000000e+00   0.000000000000e+00   0.000000000000e+00   0.000000000000e+00   0.000000000000e+00   0.000000000000e+00   0.000000000000e+00   0.000000000000e+00   0.000000000000e+00 
  0.000000000000e+00   0.000000000000e+00   0.000000000000e+00   0.000000000000e+00   0.000000000000e+00   0.000000000000e+00   0.000000000000e+00   0.000000000000e+00   0.000000000000e+00 
  0.000000000000e+00   0.000000000000e+00   0.000000000000e+00   0.000000000000e+00   0.000000000000e+00   0.000000000000e+00   0.000000000000e+00   0.000000000000e+00   0.000000000000e+00 
  0.000000000000e+00   0.000000000000e+00   0.000000000000e+00   0.000000000000e+00   0.000000000000e+00   0.000000000000e+00   0.000000000000e+00   0.000000000000e+00   0.000000000000e+00 
  0.000000000000e+00   0.000000000000e+00   0.000000000000e+00   0.000000000000e+00   0.000000000000e+00   0.000000000000e+00   0.000000000000e+00   0.000000000000e+00   0.000000000000e+00 
  0.000000000000e+00   0.000000000000e+00   0.000000000000e+00   0.000000000000e+00   0.000000000000e+00   0.000000000000e+00   0.000000000000e+00   0.000000000000e+00   0.000000000000e+00 
  0.000000000000e+00   0.000000000000e+00   0.000000000000e+00   0.000000000000e+00   0.000000000000e+00   0.000000000000e+00   0.000000000000e+00   0.000000000000e+00   0.000000000000e+00 
  0.000000000000e+00   0.000000000000e+00   0.000000000000e+00   0.000000000000e+00   0.000000000000e+00   0.000000000000e+00   0.000000000000e+00   0.000000000000e+00   0.000000000000e+00 
  0.000000000000e+00   0.000000000000e+00   0.000000000000e+00   0.000000000000e+00   0.000000000000e+00   0.000000000000e+00   0.000000000000e+00   0.000000000000e+00   0.000000000000e+00 
  0.000000000000e+00   0.000000000000e+00   9.329831123352e+00   9.329927444458e+00   9.330113410950e+00   9.330381393433e+00   9.330718994141e+00   9.331110000610e+00   9.331539154053e+00 
  9.331987380981e+00   9.332439422607e+00   9.332880973816e+00   9.333299636841e+00   9.333686828613e+00   9.334032058716e+00   9.334332466125e+00   9.334572792053e+00   9.334781646729e+00 
  9.334836006165e+00   9.335121154785e+00   0.000000000000e+00   0.000000000000e+00   9.274650573730e+00   9.274751663208e+00   9.274948120117e+00   9.275232315063e+00   9.275589942932e+00 
  9.276004791260e+00   9.276458740234e+00   9.276932716370e+00   9.277409553528e+00   9.277873039246e+00   9.278312683105e+00   9.278717994690e+00   9.279080390930e+00   9.279396057129e+00 
  9.279647827148e+00   9.279867172241e+00   9.279925346375e+00   9.280220985413e+00   0.000000000000e+00   0.000000000000e+00   9.184771537781e+00   9.184864044189e+00   9.185043334961e+00 
  9.185304641724e+00   9.185639381409e+00   9.186033248901e+00   9.186469078064e+00   9.186929702759e+00   9.187397003174e+00   9.187854766846e+00   9.188292503357e+00   9.188698768616e+00 
  9.189062118530e+00   9.189379692078e+00   9.189633369446e+00   9.189855575562e+00   9.189908027649e+00   9.190223693848e+00   0.000000000000e+00   0.000000000000e+00   8.976442337036e+00 
  8.976566314697e+00   8.976808547974e+00   8.977161407471e+00   8.977610588074e+00   8.978134155273e+00   8.978703498840e+00   8.979292869568e+00   8.979876518250e+00   8.980439186096e+00 
  8.980969429016e+00   8.981456756592e+00   8.981892585754e+00   8.982272148132e+00   8.982576370239e+00   8.982842445374e+00   8.982911109924e+00   8.983273506165e+00   0.000000000000e+00 
  0.000000000000e+00   8.779880523682e+00   8.780008316040e+00   8.780261039734e+00   8.780638694763e+00   8.781130790710e+00   8.781711578369e+00   8.782347679138e+00   8.783002853394e+00 
  8.783648490906e+00   8.784267425537e+00   8.784849166870e+00   8.785386085510e+00   8.785866737366e+00   8.786282539368e+00   8.786613464355e+00   8.786905288696e+00   8.786969184875e+00 
  8.787391662598e+00   0.000000000000e+00   0.000000000000e+00   8.383668899536e+00   8.383829116821e+00   8.384157180786e+00   8.384658813477e+00   8.385317802429e+00   8.386094093323e+00 
  8.386929512024e+00   8.387763023376e+00   8.388555526733e+00   8.389292716980e+00   8.389976501465e+00   8.390605926514e+00   8.391165733337e+00   8.391645431519e+00   8.392017364502e+00 
  8.392343521118e+00   8.392395973206e+00   8.392921447754e+00   0.000000000000e+00   0.000000000000e+00   7.978550910950e+00   7.978649616241e+00   7.978895187378e+00   7.979340076447e+00 
  7.979990482330e+00   7.980809688568e+00   7.981714725494e+00   7.982613086700e+00   7.983452796936e+00   7.984230518341e+00   7.984965324402e+00   7.985657215118e+00   7.986280441284e+00 
  7.986808776855e+00   7.987206935883e+00   7.987553596497e+00   7.987561702728e+00   7.988231658936e+00   0.000000000000e+00   0.000000000000e+00   7.388489723206e+00   7.388476848602e+00 
  7.388607501984e+00   7.389046669006e+00   7.389828681946e+00   7.390844345093e+00   7.391907691956e+00   7.392871856689e+00   7.393682956696e+00   7.394374847412e+00   7.395033359528e+00 
  7.395693778992e+00   7.396295547485e+00   7.396772384644e+00   7.397074699402e+00   7.397312641144e+00   7.397138595581e+00   7.398035049438e+00   0.000000000000e+00   0.000000000000e+00 
  6.653460979462e+00   6.653537273407e+00   6.654017925262e+00   6.654819011688e+00   6.655825614929e+00   6.657037734985e+00   6.658277511597e+00   6.659373760223e+00   6.660273075104e+00 
  6.660998821259e+00   6.661737918854e+00   6.662564277649e+00   6.663375854492e+00   6.664033889771e+00   6.664432525635e+00   6.664653301239e+00   6.664242267609e+00   6.665519714355e+00 
  0.000000000000e+00   0.000000000000e+00   5.706030368805e+00   5.703691959381e+00   5.701855659485e+00   5.700633049011e+00   5.699822902679e+00   5.699481010437e+00   5.699238777161e+00 
  5.699170112610e+00   5.699434280396e+00   5.699473381042e+00   5.699575901031e+00   5.700154781342e+00   5.701079368591e+00   5.701872825623e+00   5.702341079712e+00   5.702338218689e+00 
  5.701286792755e+00   5.703023910522e+00   0.000000000000e+00   0.000000000000e+00   4.614453315735e+00   4.606980323792e+00   4.601443290710e+00   4.596536159515e+00   4.591419696808e+00 
  4.587264537811e+00   4.583189964294e+00   4.578992843628e+00   4.577799797058e+00   4.576709747314e+00   4.575866222382e+00   4.575356483459e+00   4.575850486755e+00   4.577101230621e+00 
  4.578712940216e+00   4.578894138336e+00   4.577013492584e+00   4.579412460327e+00   0.000000000000e+00   0.000000000000e+00   3.176719665527e+00   3.162917137146e+00   3.157770633698e+00 
  3.149226665497e+00   3.139774084091e+00   3.138476848602e+00   3.133288145065e+00   3.121176004410e+00   3.115800380707e+00   3.116693019867e+00   3.121760368347e+00   3.117255210876e+00 
  3.116147041321e+00   3.119654178619e+00   3.126837491989e+00   3.129394054413e+00   3.127645492554e+00   3.130541563034e+00   0.000000000000e+00   0.000000000000e+00   1.524045944214e+00 
  1.504415273666e+00   1.485557317734e+00   1.478197216988e+00   1.483327269554e+00   1.485957384109e+00   1.485175848007e+00   1.489836573601e+00   1.496233344078e+00   1.493332147598e+00 
  1.489882111549e+00   1.498716115952e+00   1.504099011421e+00   1.503646969795e+00   1.503069639206e+00   1.502728462219e+00   1.501277089119e+00   1.503240227699e+00   0.000000000000e+00 
  0.000000000000e+00   0.000000000000e+00   0.000000000000e+00   0.000000000000e+00   0.000000000000e+00   0.000000000000e+00   0.000000000000e+00   0.000000000000e+00   0.000000000000e+00 
  0.000000000000e+00   0.000000000000e+00   0.000000000000e+00   0.000000000000e+00   0.000000000000e+00   0.000000000000e+00   0.000000000000e+00   0.000000000000e+00   0.000000000000e+00 
  0.000000000000e+00   0.000000000000e+00   0.000000000000e+00   0.000000000000e+00   0.000000000000e+00   0.000000000000e+00   0.000000000000e+00   0.000000000000e+00   0.000000000000e+00 
  0.000000000000e+00   0.000000000000e+00   0.000000000000e+00   0.000000000000e+00   0.000000000000e+00   0.000000000000e+00   0.000000000000e+00   0.000000000000e+00   0.000000000000e+00 
  0.000000000000e+00   0.000000000000e+00   0.000000000000e+00   0.000000000000e+00   0.000000000000e+00   0.000000000000e+00   0.000000000000e+00   0.000000000000e+00   0.000000000000e+00 
  0.000000000000e+00   0.000000000000e+00   0.000000000000e+00   0.000000000000e+00   0.000000000000e+00   0.000000000000e+00   0.000000000000e+00   0.000000000000e+00   0.000000000000e+00 
  0.000000000000e+00   0.000000000000e+00   0.000000000000e+00   0.000000000000e+00   0.000000000000e+00   0.000000000000e+00   0.000000000000e+00   0.000000000000e+00   0.000000000000e+00 
  0.000000000000e+00   0.000000000000e+00   0.000000000000e+00   0.000000000000e+00   0.000000000000e+00   0.000000000000e+00   0.000000000000e+00   0.000000000000e+00   0.000000000000e+00 
  0.000000000000e+00   0.000000000000e+00   0.000000000000e+00   0.000000000000e+00   0.000000000000e+00   0.000000000000e+00   0.000000000000e+00   0.000000000000e+00   0.000000000000e+00 
  0.000000000000e+00   0.000000000000e+00   0.000000000000e+00   0.000000000000e+00   0.000000000000e+00   0.000000000000e+00   0.000000000000e+00   0.000000000000e+00   0.000000000000e+00 
  0.000000000000e+00   0.000000000000e+00   0.000000000000e+00   0.000000000000e+00   0.000000000000e+00   0.000000000000e+00   0.000000000000e+00   0.000000000000e+00   0.000000000000e+00 
  0.000000000000e+00   0.000000000000e+00   0.000000000000e+00   0.000000000000e+00   0.000000000000e+00   0.000000000000e+00   0.000000000000e+00   0.000000000000e+00   0.000000000000e+00 
  0.000000000000e+00   0.000000000000e+00   0.000000000000e+00   0.000000000000e+00   0.000000000000e+00   0.000000000000e+00   0.000000000000e+00   0.000000000000e+00   0.000000000000e+00 
  0.000000000000e+00   0.000000000000e+00   0.000000000000e+00   0.000000000000e+00   0.000000000000e+00   0.000000000000e+00   0.000000000000e+00   0.000000000000e+00   0.000000000000e+00 
  0.000000000000e+00   0.000000000000e+00   0.000000000000e+00   0.000000000000e+00   0.000000000000e+00   0.000000000000e+00   0.000000000000e+00   0.000000000000e+00   0.000000000000e+00 
  0.000000000000e+00   0.000000000000e+00   0.000000000000e+00   0.000000000000e+00   0.000000000000e+00   0.000000000000e+00   8.342989921570e+00   8.343068122864e+00   8.343219757080e+00 
  8.343438148499e+00   8.343713760376e+00   8.344033241272e+00   8.344384193420e+00   8.344752311707e+00   8.345123291016e+00   8.345486640930e+00   8.345831871033e+00   8.346150398254e+00 
  8.346436500549e+00   8.346685409546e+00   8.346883773804e+00   8.347058296204e+00   8.347099304199e+00   8.347352981567e+00   0.000000000000e+00   0.000000000000e+00   8.285013198853e+00 
  8.285093307495e+00   8.285249710083e+00   8.285475730896e+00   8.285761833191e+00   8.286093711853e+00   8.286458969116e+00   8.286840438843e+00   8.287225723267e+00   8.287602424622e+00 
  8.287961006165e+00   8.288291931152e+00   8.288588523865e+00   8.288847923279e+00   8.289055824280e+00   8.289238929749e+00   8.289282798767e+00   8.289544105530e+00   0.000000000000e+00 
  0.000000000000e+00   8.195734977722e+00   8.195814132690e+00   8.195967674255e+00   8.196190834045e+00   8.196476936340e+00   8.196813583374e+00   8.197185516357e+00   8.197577476501e+00 
  8.197974205017e+00   8.198362350464e+00   8.198733329773e+00   8.199076652527e+00   8.199386596680e+00   8.199657440186e+00   8.199875831604e+00   8.200069427490e+00   8.200114250183e+00 
  8.200391769409e+00   0.000000000000e+00   0.000000000000e+00   7.967009544373e+00   7.967110157013e+00   7.967307567596e+00   7.967598438263e+00   7.967971801758e+00   7.968410968781e+00 
  7.968893051147e+00   7.969393730164e+00   7.969892501831e+00   7.970375061035e+00   7.970831394196e+00   7.971253871918e+00   7.971634864807e+00   7.971970081329e+00   7.972242355347e+00 
  7.972483634949e+00   7.972549438477e+00   7.972866058350e+00   0.000000000000e+00   0.000000000000e+00   7.758633613586e+00   7.758747577667e+00   7.758975982666e+00   7.759319782257e+00 
  7.759770393372e+00   7.760308265686e+00   7.760900020599e+00   7.761509418488e+00   7.762108325958e+00   7.762681961060e+00   7.763221740723e+00   7.763721942902e+00   7.764174461365e+00 
  7.764575004578e+00   7.764903068542e+00   7.765197753906e+00   7.765281677246e+00   7.765653610229e+00   0.000000000000e+00   0.000000000000e+00   7.398466587067e+00   7.398535251617e+00 
  7.398687362671e+00   7.398957252502e+00   7.399352073669e+00   7.399854660034e+00   7.400427818298e+00   7.401021480560e+00   7.401599407196e+00   7.402151584625e+00   7.402679443359e+00 
  7.403178215027e+00   7.403628826141e+00   7.404015064240e+00   7.404309272766e+00   7.404570102692e+00   7.404597282410e+00   7.405050754547e+00   0.000000000000e+00   0.000000000000e+00 