# vtk DataFile Version 2.0
Written using VisIt writer
ASCII
DATASET RECTILINEAR_GRID
DIMENSIONS 20 20 20
X_COORDINATES 20 float
  0.000000000000e+00   1.000000000000e+00   2.000000000000e+00   3.000000000000e+00   4.000000000000e+00   5.000000000000e+00   6.000000000000e+00   7.000000000000e+00   8.000000000000e+00 
  9.000000000000e+00   1.000000000000e+01   1.100000000000e+01   1.200000000000e+01   1.300000000000e+01   1.400000000000e+01   1.500000000000e+01   1.600000000000e+01   1.700000000000e+01 
  1.800000000000e+01   1.900000000000e+01 
Y_COORDINATES 20 float
  0.000000000000e+00   1.000000000000e+00   2.000000000000e+00   3.000000000000e+00   4.000000000000e+00   5.000000000000e+00   6.000000000000e+00   7.000000000000e+00   8.000000000000e+00 
  9.000000000000e+00   1.000000000000e+01   1.100000000000e+01   1.200000000000e+01   1.300000000000e+01   1.400000000000e+01   1.500000000000e+01   1.600000000000e+01   1.700000000000e+01 
  1.800000000000e+01   1.900000000000e+01 
Z_COORDINATES 20 float
  0.000000000000e+00   1.000000000000e+00   2.000000000000e+00   3.000000000000e+00   4.000000000000e+00   5.000000000000e+00   6.000000000000e+00   7.000000000000e+00   8.000000000000e+00 
  9.000000000000e+00   1.000000000000e+01   1.100000000000e+01   1.200000000000e+01   1.300000000000e+01   1.400000000000e+01   1.500000000000e+01   1.600000000000e+01   1.700000000000e+01 
  1.800000000000e+01   1.900000000000e+01 
CELL_DATA 6859
POINT_DATA 8000
SCALARS pressure float
LOOKUP_TABLE default
  0.000000000000e+00   0.000000000000e+00   0.000000000000e+00   0.000000000000e+00   0.000000000000e+00   0.000000000000e+00   0.000000000000e+00   0.000000000000e+00   0.000000000000e+00 
  0.000000000000e+00   0.000000000000e+00   0.000000000000e+00   0.000000000000e+00   0.000000000000e+00   0.000000000000e+00   0.000000000000e+00   0.000000000000e+00   0.000000000000e+00 
  0.000000000000e+00   0.000000000000e+00   0.000000000000e+00   0.000000000000e+00   0.000000000000e+00   0.000000000000e+00   0.000000000000e+00   0.000000000000e+00   0.000000000000e+00 
  0.000000000000e+00   0.000000000000e+00   0.000000000000e+00   0.000000000000e+00   0.000000000000e+00   0.000000000000e+00   0.000000000000e+00   0.000000000000e+00   0.000000000000e+00 
  0.000000000000e+00   0.000000000000e+00   0.000000000000e+00   0.000000000000e+00   0.000000000000e+00   0.000000000000e+00   0.000000000000e+00   0.000000000000e+00   0.000000000000e+00 
  0.000000000000e+00   0.000000000000e+00   0.000000000000e+00   0.000000000000e+00   0.000000000000e+00   0.000000000000e+00   0.000000000000e+00   0.000000000000e+00   0.000000000000e+00 
  0.000000000000e+00   0.000000000000e+00   0.000000000000e+00   0.000000000000e+00   0.000000000000e+00   0.000000000000e+00   0.000000000000e+00   0.000000000000e+00   0.000000000000e+00 
  0.000000000000e+00   0.000000000000e+00   0.000000000000e+00   0.000000000000e+00   0.000000000000e+00   0.000000000000e+00   0.000000000000e+00   0.000000000000e+00   0.000000000000e+00 
  0.000000000000e+00   0.000000000000e+00   0.000000000000e+00   0.000000000000e+00   0.000000000000e+00   0.000000000000e+00   0.000000000000e+00   0.000000000000e+00   0.000000000000e+00 
  0.000000000000e+00   0.000000000000e+00   0.000000000000e+00   0.000000000000e+00   0.000000000000e+00   0.000000000000e+00   0.000000000000e+00   0.000000000000e+00   0.000000000000e+00 
  0.000000000000e+00   0.000000000000e+00   0.000000000000e+00   0.000000000000e+00   0.000000000000e+00   0.000000000000e+00   0.000000000000e+00   0.000000000000e+00   0.000000000000e+00 
  0.000000000000e+00   0.000000000000e+00   0.000000000000e+00   0.000000000000e+00   0.000000000000e+00   0.000000000000e+00   0.000000000000e+00   0.000000000000e+00   0.000000000000e+00 
  0.000000000000e+00   0.000000000000e+00   0.000000000000e+00   0.000000000000e+00   0.000000000000e+00   0.000000000000e+00   0.000000000000e+00   0.000000000000e+00   0.000000000000e+00 
  0.000000000000e+00   0.000000000000e+00   0.000000000000e+00   0.000000000000e+00   0.000000000000e+00   0.000000000000e+00   0.000000000000e+00   0.000000000000e+00   0.000000000000e+00 
  0.000000000000e+00   0.000000000000e+00   0.000000000000e+00   0.000000000000e+00   0.000000000000e+00   0.000000000000e+00   0.000000000000e+00   0.000000000000e+00   0.000000000000e+00 
  0.000000000000e+00   0.000000000000e+00   0.000000000000e+00   0.000000000000e+00   0.000000000000e+00   0.000000000000e+00   0.000000000000e+00   0.000000000000e+00   0.000000000000e+00 
  0.000000000000e+00   0.000000000000e+00   0.000000000000e+00   0.000000000000e+00   0.000000000000e+00   0.000000000000e+00   0.000000000000e+00   0.000000000000e+00   0.000000000000e+00 
  0.000000000000e+00   0.000000000000e+00   0.000000000000e+00   0.000000000000e+00   0.000000000000e+00   0.000000000000e+00   0.000000000000e+00   0.000000000000e+00   0.000000000000e+00 
  0.000000000000e+00   0.000000000000e+00   0.000000000000e+00   0.000000000000e+00   0.000000000000e+00   0.000000000000e+00   0.000000000000e+00   0.000000000000e+00   0.000000000000e+00 
  0.000000000000e+00   0.000000000000e+00   0.000000000000e+00   0.000000000000e+00   0.000000000000e+00   0.000000000000e+00   0.000000000000e+00   0.000000000000e+00   0.000000000000e+00 
  0.000000000000e+00   0.000000000000e+00   0.000000000000e+00   0.000000000000e+00   0.000000000000e+00   0.000000000000e+00   0.000000000000e+00   0.000000000000e+00   0.000000000000e+00 
  0.000000000000e+00   0.000000000000e+00   0.000000000000e+00   0.000000000000e+00   0.000000000000e+00   0.000000000000e+00   0.000000000000e+00   0.000000000000e+00   0.000000000000e+00 
  0.000000000000e+00   0.000000000000e+00   0.000000000000e+00   0.000000000000e+00   0.000000000000e+00   0.000000000000e+00   0.000000000000e+00   0.000000000000e+00   0.000000000000e+00 
  0.000000000000e+00   0.000000000000e+00   0.000000000000e+00   0.000000000000e+00   0.000000000000e+00   0.000000000000e+00   0.000000000000e+00   0.000000000000e+00   0.000000000000e+00 
  0.000000000000e+00   0.000000000000e+00   0.000000000000e+00   0.000000000000e+00   0.000000000000e+00   0.000000000000e+00   0.000000000000e+00   0.000000000000e+00   0.000000000000e+00 
  0.000000000000e+00   0.000000000000e+00   0.000000000000e+00   0.000000000000e+00   0.000000000000e+00   0.000000000000e+00   0.000000000000e+00   0.000000000000e+00   0.000000000000e+00 
  0.000000000000e+00   0.000000000000e+00   0.000000000000e+00   0.000000000000e+00   0.000000000000e+00   0.000000000000e+00   0.000000000000e+00   0.000000000000e+00   0.000000000000e+00 
  0.000000000000e+00   0.000000000000e+00   0.000000000000e+00   0.000000000000e+00   0.000000000000e+00   0.000000000000e+00   0.000000000000e+00   0.000000000000e+00   0.000000000000e+00 
  0.000000000000e+00   0.000000000000e+00   0.000000000000e+00   0.000000000000e+00   0.000000000000e+00   0.000000000000e+00   0.000000000000e+00   0.000000000000e+00   0.000000000000e+00 
  0.000000000000e+00   0.000000000000e+00   0.000000000000e+00   0.000000000000e+00   0.000000000000e+00   0.000000000000e+00   0.000000000000e+00   0.000000000000e+00   0.000000000000e+00 
  0.000000000000e+00   0.000000000000e+00   0.000000000000e+00   0.000000000000e+00   0.000000000000e+00   0.000000000000e+00   0.000000000000e+00   0.000000000000e+00   0.000000000000e+00 
  0.000000000000e+00   0.000000000000e+00   0.000000000000e+00   0.000000000000e+00   0.000000000000e+00   0.000000000000e+00   0.000000000000e+00   0.000000000000e+00   0.000000000000e+00 
  0.000000000000e+00   0.000000000000e+00   0.000000000000e+00   0.000000000000e+00   0.000000000000e+00   0.000000000000e+00   0.000000000000e+00   0.000000000000e+00   0.000000000000e+00 
  0.000000000000e+00   0.000000000000e+00   0.000000000000e+00   0.000000000000e+00   0.000000000000e+00   0.000000000000e+00   0.000000000000e+00   0.000000000000e+00   0.000000000000e+00 
  0.000000000000e+00   0.000000000000e+00   0.000000000000e+00   0.000000000000e+00   0.000000000000e+00   0.000000000000e+00   0.000000000000e+00   0.000000000000e+00   0.000000000000e+00 
  0.000000000000e+00   0.000000000000e+00   0.000000000000e+00   0.000000000000e+00   0.000000000000e+00   0.000000000000e+00   0.000000000000e+00   0.000000000000e+00   0.000000000000e+00 
  0.000000000000e+00   0.000000000000e+00   0.000000000000e+00   0.000000000000e+00   0.000000000000e+00   0.000000000000e+00   0.000000000000e+00   0.000000000000e+00   0.000000000000e+00 
  0.000000000000e+00   0.000000000000e+00   0.000000000000e+00   0.000000000000e+00   0.000000000000e+00   0.000000000000e+00   0.000000000000e+00   0.000000000000e+00   0.000000000000e+00 
  0.000000000000e+00   0.000000000000e+00   0.000000000000e+00   0.000000000000e+00   0.000000000000e+00   0.000000000000e+00   0.000000000000e+00   0.000000000000e+00   0.000000000000e+00 
  0.000000000000e+00   0.000000000000e+00   0.000000000000e+00   0.000000000000e+00   0.000000000000e+00   0.000000000000e+00   0.000000000000e+00   0.000000000000e+00   0.000000000000e+00 
  0.000000000000e+00   0.000000000000e+00   0.000000000000e+00   0.000000000000e+00   0.000000000000e+00   0.000000000000e+00   0.000000000000e+00   0.000000000000e+00   0.000000000000e+00 
  0.000000000000e+00   0.000000000000e+00   0.000000000000e+00   0.000000000000e+00   0.000000000000e+00   0.000000000000e+00   0.000000000000e+00   0.000000000000e+00   0.000000000000e+00 
  0.000000000000e+00   0.000000000000e+00   0.000000000000e+00   0.000000000000e+00   0.000000000000e+00   0.000000000000e+00   0.000000000000e+00   0.000000000000e+00   0.000000000000e+00 
  0.000000000000e+00   0.000000000000e+00   0.000000000000e+00   0.000000000000e+00   0.000000000000e+00   0.000000000000e+00   0.000000000000e+00   0.000000000000e+00   0.000000000000e+00 
  0.000000000000e+00   0.000000000000e+00   0.000000000000e+00   0.000000000000e+00   0.000000000000e+00   0.000000000000e+00   0.000000000000e+00   0.000000000000e+00   0.000000000000e+00 
  0.000000000000e+00   0.000000000000e+00   0.000000000000e+00   0.000000000000e+00   0.000000000000e+00   0.000000000000e+00   0.000000000000e+00   0.000000000000e+00   0.000000000000e+00 
  0.000000000000e+00   0.000000000000e+00   0.000000000000e+00   0.000000000000e+00   0.000000000000e+00   0.000000000000e+00   0.000000000000e+00   5.564257144928e+00   5.568625926971e+00 
  5.581553459167e+00   5.644054889679e+00   5.559714317322e+00   5.478612422943e+00   5.362507820129e+00   5.305307388306e+00   5.275139808655e+00   5.282163619995e+00   5.386724472046e+00 
  5.444085121155e+00   5.633432388306e+00   5.723172187805e+00   5.750784397125e+00   5.689540863037e+00   5.676573753357e+00   5.710743904114e+00   0.000000000000e+00   0.000000000000e+00 
  5.509037017822e+00   5.467008590698e+00   5.466493129730e+00   5.462386608124e+00   5.382284164429e+00   5.261394977570e+00   5.232913017273e+00   5.296252250671e+00   5.336837768555e+00 
  5.366361618042e+00   5.429540634155e+00   5.504173278809e+00   5.562649250031e+00   5.606248855591e+00   5.652276992798e+00   5.662920951843e+00   5.641776084900e+00   5.721519947052e+00 
  0.000000000000e+00   0.000000000000e+00   5.359923839569e+00   5.316179275513e+00   5.359792232513e+00   5.338141918182e+00   5.267026424408e+00   5.246680736542e+00   5.263581752777e+00 
  5.343481063843e+00   5.412474632263e+00   5.522033691406e+00   5.598706245422e+00   5.667612552643e+00   5.514540195465e+00   5.560184478760e+00   5.573032855988e+00   5.691709995270e+00 
  5.535314559937e+00   5.547594547272e+00   0.000000000000e+00   0.000000000000e+00   5.111403465271e+00   5.165234565735e+00   5.152853965759e+00   5.118185997009e+00   5.148185253143e+00 
  5.078577041626e+00   5.167457580566e+00   5.276796340942e+00   5.372839927673e+00   5.480642795563e+00   5.616958141327e+00   5.536054134369e+00   5.577472209930e+00   5.517519950867e+00 
  5.622380256653e+00   5.513817310333e+00   5.372294425964e+00   5.409832954407e+00   0.000000000000e+00   0.000000000000e+00   5.023645877838e+00   4.928277969360e+00   4.967171192169e+00 
  5.005146503448e+00   4.864418983459e+00   4.982444286346e+00   5.010428428650e+00   5.227850437164e+00   5.302904129028e+00   5.475064277649e+00   5.373001098633e+00   5.388502120972e+00 
  5.250654697418e+00   5.351110458374e+00   5.242386817932e+00   5.209239006042e+00   5.209771633148e+00   5.364641666412e+00   0.000000000000e+00   0.000000000000e+00   4.775834083557e+00 
  4.848722457886e+00   4.836226463318e+00   4.838942527771e+00   4.862660408020e+00   4.876663208008e+00   5.016551494598e+00   5.141964435577e+00   5.262186050415e+00   5.316764354706e+00 
  5.313852787018e+00   5.041949272156e+00   5.071250915527e+00   4.938227653503e+00   4.950256347656e+00   5.091760158539e+00   5.285596847534e+00   5.421729564667e+00   0.000000000000e+00 
  0.000000000000e+00   4.669528484344e+00   4.505964756012e+00   4.529874324799e+00   4.578253746033e+00   4.607551097870e+00   4.689498901367e+00   4.733757495880e+00   4.885088920593e+00 
  4.903841018677e+00   4.923190116882e+00   4.654189109802e+00   4.598483085632e+00   4.445170879364e+00   4.419764041901e+00   4.553486347198e+00   4.825910568237e+00   5.035472869873e+00 
  5.245007991791e+00   0.000000000000e+00   0.000000000000e+00   4.637550354004e+00   4.679286956787e+00   4.630985260010e+00   4.720414161682e+00   4.707458972931e+00   4.676505088806e+00 
  4.739049911499e+00   4.800897121429e+00   4.803314685822e+00   4.681794166565e+00   4.441488742828e+00   4.100287914276e+00   3.992207527161e+00   4.061434268951e+00   4.161595344543e+00 
  4.549936294556e+00   4.714862823486e+00   4.430820465088e+00   0.000000000000e+00   0.000000000000e+00   4.725792407990e+00   4.666491985321e+00   4.724669933319e+00   4.674161911011e+00 
  4.650496959686e+00   4.623358726501e+00   4.631156444550e+00   4.618395328522e+00   4.396965503693e+00   4.156247615814e+00   4.008421897888e+00   3.733135938644e+00   3.554032802582e+00 
  3.708546876907e+00   3.738033771515e+00   3.966702938080e+00   4.216452598572e+00   3.952207326889e+00   0.000000000000e+00   0.000000000000e+00   4.722975730896e+00   4.712066173553e+00 
  4.682527065277e+00   4.680492401123e+00   4.636260986328e+00   4.573044300079e+00   4.612524509430e+00   4.359445571899e+00   4.160009384155e+00   4.017395973206e+00   3.910817384720e+00 
  3.784171342850e+00   3.645146846771e+00   4.125401973724e+00   3.667987585068e+00   3.802927255630e+00   3.936131477356e+00   3.688594102859e+00   0.000000000000e+00   0.000000000000e+00 
  4.734756946564e+00   4.726644039154e+00   4.798860549927e+00   4.798199176788e+00   4.700113296509e+00   4.737851619720e+00   4.535033226013e+00   4.465377807617e+00   4.486528873444e+00 
  4.246790885925e+00   4.239967346191e+00   4.099835872650e+00   4.124792575836e+00   4.852190494537e+00   3.822798967361e+00   3.509087562561e+00   3.891536474228e+00   3.622109174728e+00 
  0.000000000000e+00   0.000000000000e+00   4.626803398132e+00   4.669551372528e+00   4.768036365509e+00   4.621051311493e+00   4.481220245361e+00   4.366441726685e+00   4.321593284607e+00 
  4.402323722839e+00   5.108560562134e+00   4.668998718262e+00   4.547149658203e+00   4.236472606659e+00   3.742921829224e+00   3.821490049362e+00   3.432759761810e+00   3.546791315079e+00 
  3.607776403427e+00   3.790144681931e+00   0.000000000000e+00   0.000000000000e+00   4.455965042114e+00   4.509510517120e+00   4.459932804108e+00   4.269919872284e+00   4.059247493744e+00 
  3.922171831131e+00   4.013082981110e+00   4.324929237366e+00   4.843360424042e+00   5.228542327881e+00   5.013134479523e+00   4.900284290314e+00   4.227109432220e+00   3.581165075302e+00 
  3.866276979446e+00   3.744580984116e+00   3.922208547592e+00   3.756404876709e+00   0.000000000000e+00   0.000000000000e+00   4.075628757477e+00   3.997755289078e+00   3.890762805939e+00 
  3.628682851791e+00   3.812099695206e+00   3.644634246826e+00   4.431656837463e+00   4.865272045135e+00   5.960496902466e+00   6.715921401978e+00   6.053218841553e+00   6.197640419006e+00 
  4.430167675018e+00   4.565570831299e+00   3.750384092331e+00   3.947572708130e+00   3.979842185974e+00   4.013813495636e+00   0.000000000000e+00   0.000000000000e+00   3.504060983658e+00 
  3.468956470490e+00   3.315226793289e+00   3.445862770081e+00   3.588941812515e+00   4.411250591278e+00   4.919203758240e+00   5.783705234528e+00   7.576623916626e+00   9.123850822449e+00 
  8.692706108093e+00   8.472746849060e+00   5.985923290253e+00   4.935073375702e+00   4.884420871735e+00   4.685523033142e+00   4.417200565338e+00   4.249281406403e+00   0.000000000000e+00 
  0.000000000000e+00   2.817459344864e+00   2.872444391251e+00   3.261964321136e+00   3.486291885376e+00   3.954549312592e+00   4.223674774170e+00   5.583924293518e+00   6.536069393158e+00 
  7.963346481323e+00   9.469792366028e+00   9.438440322876e+00   9.135899543762e+00   7.810222625732e+00   6.756824016571e+00   5.685103416443e+00   5.047359466553e+00   4.792158603668e+00 
  4.580183029175e+00   0.000000000000e+00   0.000000000000e+00   1.857717156410e+00   2.115030288696e+00   2.889786720276e+00   3.153960704803e+00   3.151831865311e+00   4.619366168976e+00 
  6.531194210052e+00   7.689384460449e+00   9.110205650330e+00   1.114065170288e+01   1.187902545929e+01   1.091486835480e+01   9.894373893738e+00   8.200767517090e+00   6.151019096375e+00 
  5.215502738953e+00   4.819028377533e+00   4.668684005737e+00   0.000000000000e+00   0.000000000000e+00   5.651470184326e+00   6.073178768158e+00   2.198822736740e+00   2.085538625717e+00 
  6.030757904053e+00   4.149173259735e+00   6.894674301147e+00   8.074636459351e+00   1.027682495117e+01   1.330601215363e+01   1.511232280731e+01   1.372082805634e+01   1.243393707275e+01 
  9.711625099182e+00   6.051969528198e+00   5.081998348236e+00   4.628461837769e+00   4.543803691864e+00   0.000000000000e+00   0.000000000000e+00   0.000000000000e+00   0.000000000000e+00 
  0.000000000000e+00   0.000000000000e+00   0.000000000000e+00   0.000000000000e+00   0.000000000000e+00   0.000000000000e+00   0.000000000000e+00   0.000000000000e+00   0.000000000000e+00 
  0.000000000000e+00   0.000000000000e+00   0.000000000000e+00   0.000000000000e+00   0.000000000000e+00   0.000000000000e+00   0.000000000000e+00   0.000000000000e+00   0.000000000000e+00 
  0.000000000000e+00   0.000000000000e+00   0.000000000000e+00   0.000000000000e+00   0.000000000000e+00   0.000000000000e+00   0.000000000000e+00   0.000000000000e+00   0.000000000000e+00 
  0.000000000000e+00   0.000000000000e+00   0.000000000000e+00   0.000000000000e+00   0.000000000000e+00   0.000000000000e+00   0.000000000000e+00   0.000000000000e+00   0.000000000000e+00 
  0.000000000000e+00   0.000000000000e+00   4.658865451813e+00   4.601565837860e+00   4.641901493073e+00   4.630161285400e+00   4.630239963531e+00   4.531115055084e+00   4.488215446472e+00 
  4.436800956726e+00   4.444681644440e+00   4.486353874207e+00   4.531144618988e+00   4.619515419006e+00   4.673332214355e+00   4.769418239594e+00   4.802206993103e+00   4.797204017639e+00 
  4.723101615906e+00   4.776807308197e+00   0.000000000000e+00   0.000000000000e+00   4.560719490051e+00   4.561140537262e+00   4.564608573914e+00   4.548395156860e+00   4.466794013977e+00 
  4.424312114716e+00   4.399395465851e+00   4.447538852692e+00   4.469305038452e+00   4.534606933594e+00   4.582459449768e+00   4.652168273926e+00   4.663419723511e+00   4.692156314850e+00 
  4.680853366852e+00   4.720064163208e+00   4.626808643341e+00   4.654567241669e+00   0.000000000000e+00   0.000000000000e+00   4.414427280426e+00   4.460424423218e+00   4.481231689453e+00 
  4.443018913269e+00   4.536827087402e+00   4.496816158295e+00   4.508000850677e+00   4.431780338287e+00   4.474225997925e+00   4.599860191345e+00   4.773389339447e+00   4.773855209351e+00 
  4.789854049683e+00   4.699681282043e+00   4.763980865479e+00   4.734225273132e+00   4.606615543365e+00   4.644599437714e+00   0.000000000000e+00   0.000000000000e+00   4.259454727173e+00 
  4.217981338501e+00   4.229607582092e+00   4.264495372772e+00   4.213088989258e+00   4.299023628235e+00   4.216685771942e+00   4.302479267120e+00   4.270482540131e+00   4.509160041809e+00 
  4.617427825928e+00   4.755064964294e+00   4.703516483307e+00   4.757328033447e+00   4.705222606659e+00   4.662127017975e+00   4.542169094086e+00   4.520286560059e+00   0.000000000000e+00 
  0.000000000000e+00   3.949707984924e+00   4.034080028534e+00   4.115276813507e+00   4.004942417145e+00   3.990942955017e+00   4.017041683197e+00   4.179037094116e+00   4.187072277069e+00 
  4.207786560059e+00   4.425111293793e+00   4.512575149536e+00   4.457787990570e+00   4.577155113220e+00   4.584087371826e+00   4.660909175873e+00   4.521629810333e+00   4.487674236298e+00 
  4.588046073914e+00   0.000000000000e+00   0.000000000000e+00   3.880113363266e+00   3.860641956329e+00   3.913423299789e+00   4.003479957581e+00   3.879420042038e+00   4.056025505066e+00 
  4.112852096558e+00   4.189705371857e+00   4.174362659454e+00   4.342470169067e+00   4.252647876740e+00   4.225364208221e+00   4.055755615234e+00   4.048829555511e+00   4.106800556183e+00 
  4.310027599335e+00   4.636835098267e+00   4.671052932739e+00   0.000000000000e+00   0.000000000000e+00   3.625412940979e+00   3.650975704193e+00   3.668727397919e+00   3.625429391861e+00 
  3.747425794601e+00   3.756858110428e+00   3.853078842163e+00   3.870036125183e+00   3.921781539917e+00   3.834818124771e+00   3.827588319778e+00   3.602057933807e+00   3.638274908066e+00 
  3.610170125961e+00   3.475173711777e+00   3.871224164963e+00   3.866523265839e+00   3.796690464020e+00   0.000000000000e+00   0.000000000000e+00   3.615897893906e+00   3.601837158203e+00 
  3.612356424332e+00   3.674960613251e+00   3.709847688675e+00   3.711143255234e+00   3.716027498245e+00   3.756938695908e+00   3.715924263000e+00   3.626197338104e+00   3.379030466080e+00 
  3.281021356583e+00   3.198271512985e+00   3.420089006424e+00   3.260961294174e+00   3.192733287811e+00   3.444367170334e+00   3.562532424927e+00   0.000000000000e+00   0.000000000000e+00 
  3.619245767593e+00   3.633199691772e+00   3.611718416214e+00   3.613834619522e+00   3.566823005676e+00   3.567123889923e+00   3.564550876617e+00   3.543453454971e+00   3.431851863861e+00 
  3.182539939880e+00   2.995769262314e+00   2.841184139252e+00   2.739016771317e+00   2.996631145477e+00   2.809896469116e+00   3.066679477692e+00   2.997831583023e+00   3.042918682098e+00 
  0.000000000000e+00   0.000000000000e+00   3.655724287033e+00   3.618557214737e+00   3.630619525909e+00   3.590897083282e+00   3.517479419708e+00   3.468163967133e+00   3.401237249374e+00 
  3.336729764938e+00   3.040871620178e+00   2.841046333313e+00   2.881429195404e+00   2.682147502899e+00   2.468645334244e+00   2.676375389099e+00   2.663119316101e+00   2.814073562622e+00 
  2.948629140854e+00   2.700354814529e+00   0.000000000000e+00   0.000000000000e+00   3.621891498566e+00   3.582688093185e+00   3.635500669479e+00   3.629257202148e+00   3.624817371368e+00 
  3.503979444504e+00   3.472036600113e+00   3.127027511597e+00   3.080312252045e+00   2.937329530716e+00   3.039481163025e+00   2.974401473999e+00   2.654920101166e+00   2.863995313644e+00 
  2.544070720673e+00   2.766368627548e+00   2.812021493912e+00   2.830689907074e+00   0.000000000000e+00   0.000000000000e+00   3.503988265991e+00   3.502455711365e+00   3.529256582260e+00 
  3.517747163773e+00   3.387623071671e+00   3.356090784073e+00   3.265170574188e+00   3.252692937851e+00   3.340014457703e+00   3.440231323242e+00   3.477858543396e+00   3.307331323624e+00 
  2.747545003891e+00   2.609299421310e+00   2.458787918091e+00   2.619884967804e+00   2.793871641159e+00   2.517877340317e+00   0.000000000000e+00   0.000000000000e+00   3.288829088211e+00 
  3.303104162216e+00   3.401819229126e+00   3.248451232910e+00   3.064074993134e+00   3.047643661499e+00   3.032575130463e+00   3.130758047104e+00   3.656396150589e+00   3.866783618927e+00 
  3.943478345871e+00   3.723533630371e+00   2.962656021118e+00   2.819015502930e+00   2.698995113373e+00   2.662270545959e+00   2.650369167328e+00   2.774586200714e+00   0.000000000000e+00 
  0.000000000000e+00   2.978195905685e+00   3.004984140396e+00   2.926921844482e+00   2.775592088699e+00   2.867255449295e+00   2.970743894577e+00   3.169249296188e+00   3.524520874023e+00 
  4.293771266937e+00   4.903920650482e+00   4.931687355042e+00   5.186108112335e+00   3.195538043976e+00   2.758575916290e+00   2.898894309998e+00   2.704429388046e+00   2.738335132599e+00 
  2.652297973633e+00   0.000000000000e+00   0.000000000000e+00   2.610337972641e+00   2.620047330856e+00   2.766023397446e+00   2.796661615372e+00   3.131605386734e+00   3.116133213043e+00 
  3.765991926193e+00   4.440949440002e+00   5.606190204620e+00   6.855189800262e+00   7.422205448151e+00   7.700638771057e+00   2.381511688232e+00   3.587306261063e+00   3.565885066986e+00 
  3.247423648834e+00   3.129115819931e+00   2.979043960571e+00   0.000000000000e+00   0.000000000000e+00   2.003181457520e+00   2.251741170883e+00   2.558577537537e+00   2.757750749588e+00 
  3.070429325104e+00   3.499905347824e+00   4.320043087006e+00   5.107356071472e+00   6.466770648956e+00   7.670501232147e+00   8.058744430542e+00   8.205848693848e+00   6.136089801788e+00 
  5.310669898987e+00   4.302734851837e+00   3.868474245071e+00   3.528221130371e+00   3.392453670502e+00   0.000000000000e+00   0.000000000000e+00   1.474023103714e+00   1.683760643005e+00 
  2.382830142975e+00   2.651961565018e+00   2.821150541306e+00   3.911147117615e+00   5.573490142822e+00   6.584115982056e+00   8.055130004883e+00   9.558407783508e+00   9.427734375000e+00 
  8.647422790527e+00   7.829718112946e+00   6.173275470734e+00   4.068383693695e+00   3.741727352142e+00   3.493705034256e+00   3.422217845917e+00   0.000000000000e+00   0.000000000000e+00 
  8.124045133591e-01   9.951116442680e-01   2.051732063293e+00   2.454912662506e+00   2.361624240875e+00   4.273868560791e+00   6.495084285736e+00   7.210247993469e+00   8.764174461365e+00 
  1.156637954712e+01   1.159856319427e+01   1.039956283569e+01   9.499177932739e+00   6.612895965576e+00   2.550285577774e+00   2.939354181290e+00   3.048043012619e+00   3.198351860046e+00 
  0.000000000000e+00   0.000000000000e+00   0.000000000000e+00   0.000000000000e+00   0.000000000000e+00   0.000000000000e+00   0.000000000000e+00   0.000000000000e+00   0.000000000000e+00 
  0.000000000000e+00   0.000000000000e+00   0.000000000000e+00   0.000000000000e+00   0.000000000000e+00   0.000000000000e+00   0.000000000000e+00   0.000000000000e+00   0.000000000000e+00 
  0.000000000000e+00   0.000000000000e+00   0.000000000000e+00   0.000000000000e+00   0.000000000000e+00   0.000000000000e+00   0.000000000000e+00   0.000000000000e+00   0.000000000000e+00 
  0.000000000000e+00   0.000000000000e+00   0.000000000000e+00   0.000000000000e+00   0.000000000000e+00   0.000000000000e+00   0.000000000000e+00   0.000000000000e+00   0.000000000000e+00 
  0.000000000000e+00   0.000000000000e+00   0.000000000000e+00   0.000000000000e+00   0.000000000000e+00   0.000000000000e+00   3.863240957260e+00   3.857070207596e+00   3.802611112595e+00 
  3.831487417221e+00   3.813073158264e+00   3.823812723160e+00   3.733720779419e+00   3.737149715424e+00   3.693130970001e+00   3.788573265076e+00   3.787023067474e+00   3.814378261566e+00 
  3.865566968918e+00   3.917010068893e+00   3.971554756165e+00   4.027460098267e+00   3.965093851089e+00   3.995901107788e+00   0.000000000000e+00   0.000000000000e+00   3.835176706314e+00 
  3.837146043777e+00   3.846992015839e+00   3.775172948837e+00   3.793225288391e+00   3.740547895432e+00   3.773192405701e+00   3.649097204208e+00   3.736121177673e+00   3.737830162048e+00 
  3.852926969528e+00   3.845266103745e+00   3.915141820908e+00   3.898700714111e+00   3.954070329666e+00   3.998844623566e+00   3.930596590042e+00   3.941920042038e+00   0.000000000000e+00 
  0.000000000000e+00   3.660901784897e+00   3.733028173447e+00   3.700815916061e+00   3.676617622375e+00   3.724124670029e+00   3.886327743530e+00   3.639297008514e+00   3.701487302780e+00 
  3.560998916626e+00   3.736080169678e+00   3.811067819595e+00   4.000533103943e+00   3.962777137756e+00   3.987813234329e+00   3.943152189255e+00   4.009586811066e+00   3.938722372055e+00 
  3.851589679718e+00   0.000000000000e+00   0.000000000000e+00   3.339868545532e+00   3.460795164108e+00   3.543443918228e+00   3.352221012115e+00   3.457172870636e+00   3.501698970795e+00 
  3.312236309052e+00   3.425551176071e+00   3.546257972717e+00   3.744175195694e+00   3.750908136368e+00   3.827669858932e+00   4.003460407257e+00   3.921789884567e+00   3.873374223709e+00 
  3.855824708939e+00   3.759862661362e+00   3.810664653778e+00   0.000000000000e+00   0.000000000000e+00   3.156936168671e+00   3.205248117447e+00   3.200139284134e+00   3.152349233627e+00 
  2.823399066925e+00   3.065117120743e+00   3.245885372162e+00   3.370291233063e+00   3.198630332947e+00   3.926138401031e+00   3.704020977020e+00   3.655825138092e+00   3.547181844711e+00 
  3.635221004486e+00   3.753487348557e+00   3.690638780594e+00   3.874771118164e+00   4.001434326172e+00   0.000000000000e+00   0.000000000000e+00   2.892886638641e+00   2.978725433350e+00 
  3.025145053864e+00   2.963801860809e+00   2.904524326324e+00   2.974778175354e+00   3.094002008438e+00   3.176070451736e+00   3.194268703461e+00   3.344413995743e+00   3.331641674042e+00 
  3.170528411865e+00   3.256911516190e+00   3.186327695847e+00   3.130603790283e+00   3.901276588440e+00   4.075942516327e+00   3.945388555527e+00   0.000000000000e+00   0.000000000000e+00 