# vtk DataFile Version 2.0
Written using VisIt writer
ASCII
DATASET RECTILINEAR_GRID
DIMENSIONS 20 20 20
X_COORDINATES 20 float
  0.000000000000e+00   1.000000000000e+00   2.000000000000e+00   3.000000000000e+00   4.000000000000e+00   5.000000000000e+00   6.000000000000e+00   7.000000000000e+00   8.000000000000e+00 
  9.000000000000e+00   1.000000000000e+01   1.100000000000e+01   1.200000000000e+01   1.300000000000e+01   1.400000000000e+01   1.500000000000e+01   1.600000000000e+01   1.700000000000e+01 
  1.800000000000e+01   1.900000000000e+01 
Y_COORDINATES 20 float
  0.000000000000e+00   1.000000000000e+00   2.000000000000e+00   3.000000000000e+00   4.000000000000e+00   5.000000000000e+00   6.000000000000e+00   7.000000000000e+00   8.000000000000e+00 
  9.000000000000e+00   1.000000000000e+01   1.100000000000e+01   1.200000000000e+01   1.300000000000e+01   1.400000000000e+01   1.500000000000e+01   1.600000000000e+01   1.700000000000e+01 
  1.800000000000e+01   1.900000000000e+01 
Z_COORDINATES 20 float
  0.000000000000e+00   1.000000000000e+00   2.000000000000e+00   3.000000000000e+00   4.000000000000e+00   5.000000000000e+00   6.000000000000e+00   7.000000000000e+00   8.000000000000e+00 
  9.000000000000e+00   1.000000000000e+01   1.100000000000e+01   1.200000000000e+01   1.300000000000e+01   1.400000000000e+01   1.500000000000e+01   1.600000000000e+01   1.700000000000e+01 
  1.800000000000e+01   1.900000000000e+01 
CELL_DATA 6859
POINT_DATA 8000
SCALARS pressure float
LOOKUP_TABLE default
  0.000000000000e+00   0.000000000000e+00   0.000000000000e+00   0.000000000000e+00   0.000000000000e+00   0.000000000000e+00   0.000000000000e+00   0.000000000000e+00   0.000000000000e+00 
  0.000000000000e+00   0.000000000000e+00   0.000000000000e+00   0.000000000000e+00   0.000000000000e+00   0.000000000000e+00   0.000000000000e+00   0.000000000000e+00   0.000000000000e+00 
  0.000000000000e+00   0.000000000000e+00   0.000000000000e+00   0.000000000000e+00   0.000000000000e+00   0.000000000000e+00   0.000000000000e+00   0.000000000000e+00   0.000000000000e+00 
  0.000000000000e+00   0.000000000000e+00   0.000000000000e+00   0.000000000000e+00   0.000000000000e+00   0.000000000000e+00   0.000000000000e+00   0.000000000000e+00   0.000000000000e+00 
  0.000000000000e+00   0.000000000000e+00   0.000000000000e+00   0.000000000000e+00   0.000000000000e+00   0.000000000000e+00   0.000000000000e+00   0.000000000000e+00   0.000000000000e+00 
  0.000000000000e+00   0.000000000000e+00   0.000000000000e+00   0.000000000000e+00   0.000000000000e+00   0.000000000000e+00   0.000000000000e+00   0.000000000000e+00   0.000000000000e+00 
  0.000000000000e+00   0.000000000000e+00   0.000000000000e+00   0.000000000000e+00   0.000000000000e+00   0.000000000000e+00   0.000000000000e+00   0.000000000000e+00   0.000000000000e+00 
  0.000000000000e+00   0.000000000000e+00   0.000000000000e+00   0.000000000000e+00   0.000000000000e+00   0.000000000000e+00   0.000000000000e+00   0.000000000000e+00   0.000000000000e+00 
  0.000000000000e+00   0.000000000000e+00   0.000000000000e+00   0.000000000000e+00   0.000000000000e+00   0.000000000000e+00   0.000000000000e+00   0.000000000000e+00   0.000000000000e+00 
  0.000000000000e+00   0.000000000000e+00   0.000000000000e+00   0.000000000000e+00   0.000000000000e+00   0.000000000000e+00   0.000000000000e+00   0.000000000000e+00   0.000000000000e+00 
  0.000000000000e+00   0.000000000000e+00   0.000000000000e+00   0.000000000000e+00   0.000000000000e+00   0.000000000000e+00   0.000000000000e+00   0.000000000000e+00   0.000000000000e+00 
  0.000000000000e+00   0.000000000000e+00   0.000000000000e+00   0.000000000000e+00   0.000000000000e+00   0.000000000000e+00   0.000000000000e+00   0.000000000000e+00   0.000000000000e+00 
  0.000000000000e+00   0.000000000000e+00   0.000000000000e+00   0.000000000000e+00   0.000000000000e+00   0.000000000000e+00   0.000000000000e+00   0.000000000000e+00   0.000000000000e+00 
  0.000000000000e+00   0.000000000000e+00   0.000000000000e+00   0.000000000000e+00   0.000000000000e+00   0.000000000000e+00   0.000000000000e+00   0.000000000000e+00   0.000000000000e+00 
  0.000000000000e+00   0.000000000000e+00   0.000000000000e+00   0.000000000000e+00   0.000000000000e+00   0.000000000000e+00   0.000000000000e+00   0.000000000000e+00   0.000000000000e+00 
  0.000000000000e+00   0.000000000000e+00   0.000000000000e+00   0.000000000000e+00   0.000000000000e+00   0.000000000000e+00   0.000000000000e+00   0.000000000000e+00   0.000000000000e+00 
  0.000000000000e+00   0.000000000000e+00   0.000000000000e+00   0.000000000000e+00   0.000000000000e+00   0.000000000000e+00   0.000000000000e+00   0.000000000000e+00   0.000000000000e+00 
  0.000000000000e+00   0.000000000000e+00   0.000000000000e+00   0.000000000000e+00   0.000000000000e+00   0.000000000000e+00   0.000000000000e+00   0.000000000000e+00   0.000000000000e+00 
  0.000000000000e+00   0.000000000000e+00   0.000000000000e+00   0.000000000000e+00   0.000000000000e+00   0.000000000000e+00   0.000000000000e+00   0.000000000000e+00   0.000000000000e+00 
  0.000000000000e+00   0.000000000000e+00   0.000000000000e+00   0.000000000000e+00   0.000000000000e+00   0.000000000000e+00   0.000000000000e+00   0.000000000000e+00   0.000000000000e+00 
  0.000000000000e+00   0.000000000000e+00   0.000000000000e+00   0.000000000000e+00   0.000000000000e+00   0.000000000000e+00   0.000000000000e+00   0.000000000000e+00   0.000000000000e+00 
  0.000000000000e+00   0.000000000000e+00   0.000000000000e+00   0.000000000000e+00   0.000000000000e+00   0.000000000000e+00   0.000000000000e+00   0.000000000000e+00   0.000000000000e+00 
  0.000000000000e+00   0.000000000000e+00   0.000000000000e+00   0.000000000000e+00   0.000000000000e+00   0.000000000000e+00   0.000000000000e+00   0.000000000000e+00   0.000000000000e+00 
  0.000000000000e+00   0.000000000000e+00   0.000000000000e+00   0.000000000000e+00   0.000000000000e+00   0.000000000000e+00   0.000000000000e+00   0.000000000000e+00   0.000000000000e+00 
  0.000000000000e+00   0.000000000000e+00   0.000000000000e+00   0.000000000000e+00   0.000000000000e+00   0.000000000000e+00   0.000000000000e+00   0.000000000000e+00   0.000000000000e+00 
  0.000000000000e+00   0.000000000000e+00   0.000000000000e+00   0.000000000000e+00   0.000000000000e+00   0.000000000000e+00   0.000000000000e+00   0.000000000000e+00   0.000000000000e+00 
  0.000000000000e+00   0.000000000000e+00   0.000000000000e+00   0.000000000000e+00   0.000000000000e+00   0.000000000000e+00   0.000000000000e+00   0.000000000000e+00   0.000000000000e+00 
  0.000000000000e+00   0.000000000000e+00   0.000000000000e+00   0.000000000000e+00   0.000000000000e+00   0.000000000000e+00   0.000000000000e+00   0.000000000000e+00   0.000000000000e+00 
  0.000000000000e+00   0.000000000000e+00   0.000000000000e+00   0.000000000000e+00   0.000000000000e+00   0.000000000000e+00   0.000000000000e+00   0.000000000000e+00   0.000000000000e+00 
  0.000000000000e+00   0.000000000000e+00   0.000000000000e+00   0.000000000000e+00   0.000000000000e+00   0.000000000000e+00   0.000000000000e+00   0.000000000000e+00   0.000000000000e+00 
  0.000000000000e+00   0.000000000000e+00   0.000000000000e+00   0.000000000000e+00   0.000000000000e+00   0.000000000000e+00   0.000000000000e+00   0.000000000000e+00   0.000000000000e+00 
  0.000000000000e+00   0.000000000000e+00   0.000000000000e+00   0.000000000000e+00   0.000000000000e+00   0.000000000000e+00   0.000000000000e+00   0.000000000000e+00   0.000000000000e+00 
  0.000000000000e+00   0.000000000000e+00   0.000000000000e+00   0.000000000000e+00   0.000000000000e+00   0.000000000000e+00   0.000000000000e+00   0.000000000000e+00   0.000000000000e+00 
  0.000000000000e+00   0.000000000000e+00   0.000000000000e+00   0.000000000000e+00   0.000000000000e+00   0.000000000000e+00   0.000000000000e+00   0.000000000000e+00   0.000000000000e+00 
  0.000000000000e+00   0.000000000000e+00   0.000000000000e+00   0.000000000000e+00   0.000000000000e+00   0.000000000000e+00   0.000000000000e+00   0.000000000000e+00   0.000000000000e+00 
  0.000000000000e+00   0.000000000000e+00   0.000000000000e+00   0.000000000000e+00   0.000000000000e+00   0.000000000000e+00   0.000000000000e+00   0.000000000000e+00   0.000000000000e+00 
  0.000000000000e+00   0.000000000000e+00   0.000000000000e+00   0.000000000000e+00   0.000000000000e+00   0.000000000000e+00   0.000000000000e+00   0.000000000000e+00   0.000000000000e+00 
  0.000000000000e+00   0.000000000000e+00   0.000000000000e+00   0.000000000000e+00   0.000000000000e+00   0.000000000000e+00   0.000000000000e+00   0.000000000000e+00   0.000000000000e+00 
  0.000000000000e+00   0.000000000000e+00   0.000000000000e+00   0.000000000000e+00   0.000000000000e+00   0.000000000000e+00   0.000000000000e+00   0.000000000000e+00   0.000000000000e+00 
  0.000000000000e+00   0.000000000000e+00   0.000000000000e+00   0.000000000000e+00   0.000000000000e+00   0.000000000000e+00   0.000000000000e+00   0.000000000000e+00   0.000000000000e+00 
  0.000000000000e+00   0.000000000000e+00   0.000000000000e+00   0.000000000000e+00   0.000000000000e+00   0.000000000000e+00   0.000000000000e+00   0.000000000000e+00   0.000000000000e+00 
  0.000000000000e+00   0.000000000000e+00   0.000000000000e+00   0.000000000000e+00   0.000000000000e+00   0.000000000000e+00   0.000000000000e+00   0.000000000000e+00   0.000000000000e+00 
  0.000000000000e+00   0.000000000000e+00   0.000000000000e+00   0.000000000000e+00   0.000000000000e+00   0.000000000000e+00   0.000000000000e+00   0.000000000000e+00   0.000000000000e+00 
  0.000000000000e+00   0.000000000000e+00   0.000000000000e+00   0.000000000000e+00   0.000000000000e+00   0.000000000000e+00   0.000000000000e+00   0.000000000000e+00   0.000000000000e+00 
  0.000000000000e+00   0.000000000000e+00   0.000000000000e+00   0.000000000000e+00   0.000000000000e+00   0.000000000000e+00   0.000000000000e+00   0.000000000000e+00   0.000000000000e+00 
  0.000000000000e+00   0.000000000000e+00   0.000000000000e+00   0.000000000000e+00   0.000000000000e+00   0.000000000000e+00   0.000000000000e+00   0.000000000000e+00   0.000000000000e+00 
  0.000000000000e+00   0.000000000000e+00   0.000000000000e+00   0.000000000000e+00   0.000000000000e+00   0.000000000000e+00   0.000000000000e+00   1.388333129883e+01   1.486809253693e+01 
  1.247536945343e+01   1.029222011566e+01   8.030431747437e+00   1.995369911194e+00   2.413712263107e+00   2.252825737000e+00   4.842213153839e+00   7.274938583374e+00   6.419898033142e+00 
  4.204080104828e+00   2.971782922745e+00   2.197926998138e+00   7.272783279419e+00   6.945537090302e+00   5.293984413147e+00   9.395314216614e+00   0.000000000000e+00   0.000000000000e+00 
  1.109692859650e+01   1.155773067474e+01   1.030330085754e+01   9.044759750366e+00   8.427783012390e+00   6.977985858917e+00   6.686894416809e+00   6.465293884277e+00   6.099286079407e+00 
  6.888857364655e+00   5.636287212372e+00   3.486894607544e+00   2.778972625732e+00   2.717614173889e+00   3.929614067078e+00   6.171164035797e+00   5.085921764374e+00   2.446001768112e+00 
  0.000000000000e+00   0.000000000000e+00   9.015627861023e+00   9.076771736145e+00   8.638439178467e+00   8.161995887756e+00   7.963351249695e+00   7.742697238922e+00   7.525399208069e+00 
  7.172381401062e+00   6.698838233948e+00   6.573596477509e+00   5.981674194336e+00   5.044868469238e+00   4.614462852478e+00   4.682239055634e+00   5.395391941071e+00   6.139607906342e+00 
  5.701420783997e+00   4.724150180817e+00   0.000000000000e+00   0.000000000000e+00   7.632191181183e+00   7.553594112396e+00   7.505181789398e+00   7.395948886871e+00   7.371863842010e+00 
  7.386705398560e+00   7.240777492523e+00   6.924784183502e+00   6.970248222351e+00   6.382997035980e+00   6.100880622864e+00   5.867557525635e+00   5.629304409027e+00   5.557317256927e+00 
  5.834312438965e+00   5.937730312347e+00   5.840821743011e+00   5.584928989410e+00   0.000000000000e+00   0.000000000000e+00   7.358126640320e+00   7.028721332550e+00   7.196305751801e+00 
  7.237956523895e+00   7.420226573944e+00   7.538297176361e+00   7.393292427063e+00   7.919760704041e+00   9.423420906067e+00   7.677709102631e+00   6.150255680084e+00   5.844918251038e+00 
  5.681919097900e+00   5.701448440552e+00   6.460507392883e+00   6.335115909576e+00   6.155678749084e+00   6.075373649597e+00   0.000000000000e+00   0.000000000000e+00   6.721773147583e+00 
  6.678167819977e+00   6.937392711639e+00   7.286734104156e+00   7.894666671753e+00   8.477509498596e+00   8.622344970703e+00   8.398029327393e+00   8.338151931763e+00   7.018600940704e+00 
  6.143660545349e+00   5.884432792664e+00   5.683932304382e+00   5.526925563812e+00   5.650230884552e+00   5.525212764740e+00   5.485156059265e+00   5.471850395203e+00   0.000000000000e+00 
  0.000000000000e+00   6.442004680634e+00   6.608659744263e+00   6.518254756927e+00   7.056369304657e+00   8.469796180725e+00   1.019679927826e+01   1.202911186218e+01   9.851429939270e+00 
  8.315769195557e+00   6.544284820557e+00   5.869709491730e+00   5.518923759460e+00   5.292938709259e+00   5.168609142303e+00   5.100317001343e+00   5.072893142700e+00   5.056962013245e+00 
  5.049442768097e+00   0.000000000000e+00   0.000000000000e+00   7.652155876160e+00   7.793648719788e+00   7.109563827515e+00   8.100671768188e+00   1.109794521332e+01   1.430348777771e+01 
  1.883355522156e+01   1.372999095917e+01   1.101736640930e+01   7.384999275208e+00   5.961017608643e+00   5.547825813293e+00   5.335409641266e+00   5.229850292206e+00   5.180120468140e+00 
  5.163609027863e+00   5.153024673462e+00   5.137914180756e+00   0.000000000000e+00   0.000000000000e+00   6.676990985870e+00   6.891622066498e+00   6.620136737823e+00   7.234723091125e+00 
  9.016740798950e+00   1.071611022949e+01   1.301036643982e+01   1.034623813629e+01   8.717282295227e+00   6.619055747986e+00   5.725225448608e+00   5.365831375122e+00   5.185924053192e+00 
  5.097254753113e+00   5.050878524780e+00   5.044034957886e+00   5.036350727081e+00   5.039418220520e+00   0.000000000000e+00   0.000000000000e+00   5.695150852203e+00   5.880704879761e+00 
  6.037898540497e+00   6.352834224701e+00   6.934083938599e+00   7.642168998718e+00   7.999803543091e+00   7.510993957520e+00   6.574577808380e+00   5.857469081879e+00   5.290621757507e+00 
  4.985089778900e+00   4.868223667145e+00   4.840754032135e+00   4.863077640533e+00   4.846692562103e+00   4.849510192871e+00   4.861104011536e+00   0.000000000000e+00   0.000000000000e+00 
  5.887347698212e+00   5.964060306549e+00   6.143285751343e+00   6.241117477417e+00   6.602898597717e+00   6.808485984802e+00   6.883387088776e+00   6.566920757294e+00   6.069830894470e+00 
  5.352210044861e+00   4.816204547882e+00   4.795247554779e+00   4.892066955566e+00   5.000167846680e+00   5.034034729004e+00   5.108019351959e+00   5.138401985168e+00   5.116816043854e+00 
  0.000000000000e+00   0.000000000000e+00   5.843180179596e+00   5.902530670166e+00   6.016090393066e+00   6.044706821442e+00   6.224026203156e+00   6.285478115082e+00   6.248125076294e+00 
  5.976872444153e+00   5.441338539124e+00   4.596649646759e+00   3.630113840103e+00   4.260712623596e+00   4.704576492310e+00   4.961503028870e+00   5.051025390625e+00   5.117422103882e+00 
  5.156929016113e+00   5.192990303040e+00   0.000000000000e+00   0.000000000000e+00   5.862097263336e+00   5.887066364288e+00   5.935873508453e+00   5.998764514923e+00   6.033471584320e+00 
  6.038726329803e+00   5.938663959503e+00   5.602927684784e+00   5.055158138275e+00   3.781942844391e+00   6.385434627533e+00   3.578792095184e+00   4.634236335754e+00   5.051915645599e+00 
  5.277565956116e+00   5.344414234161e+00   5.428206920624e+00   5.404073238373e+00   0.000000000000e+00   0.000000000000e+00   6.205918788910e+00   6.166935920715e+00   6.157444000244e+00 
  6.154248714447e+00   6.157635211945e+00   6.099691867828e+00   5.952238082886e+00   5.753437995911e+00   5.571158885956e+00   4.708370208740e+00   3.824210405350e+00   4.562680244446e+00 
  5.143335819244e+00   5.392237663269e+00   5.510526180267e+00   5.628532409668e+00   5.896003246307e+00   5.611977100372e+00   0.000000000000e+00   0.000000000000e+00   6.408165454865e+00 
  6.282380104065e+00   6.265467643738e+00   6.248302459717e+00   6.198894977570e+00   6.159902095795e+00   6.049546241760e+00   5.868686676025e+00   5.722529411316e+00   5.330322742462e+00 
  5.089934825897e+00   5.242490768433e+00   5.477127552032e+00   5.626812934875e+00   5.729493618011e+00   5.782034397125e+00   5.980189323425e+00   5.754095554352e+00   0.000000000000e+00 
  0.000000000000e+00   6.343206405640e+00   6.308401584625e+00   6.385308265686e+00   6.393438339233e+00   6.359113693237e+00   6.315905094147e+00   6.235128402710e+00   6.120347499847e+00 
  5.970807552338e+00   5.832138061523e+00   5.753511905670e+00   5.781342506409e+00   5.846429824829e+00   5.926135540009e+00   5.999587535858e+00   6.027067184448e+00   6.114263057709e+00 
  6.041875839233e+00   0.000000000000e+00   0.000000000000e+00   6.480388641357e+00   6.432631969452e+00   6.459997653961e+00   6.422950744629e+00   6.411462306976e+00   6.415036201477e+00 
  6.330406665802e+00   6.291267395020e+00   6.170811176300e+00   6.045756340027e+00   6.011379241943e+00   6.036920547485e+00   6.037293434143e+00   6.094330787659e+00   6.128744125366e+00 
  6.169752597809e+00   6.183969020844e+00   6.195885181427e+00   0.000000000000e+00   0.000000000000e+00   6.538922309875e+00   6.595654010773e+00   6.670119285583e+00   6.741718769073e+00 
  6.729642391205e+00   6.637262344360e+00   6.589665889740e+00   6.467062950134e+00   6.438340663910e+00   6.424671649933e+00   6.347438335419e+00   6.307178020477e+00   6.378007411957e+00 
  6.406018257141e+00   6.448529720306e+00   6.453184127808e+00   6.435762882233e+00   6.417657852173e+00   0.000000000000e+00   0.000000000000e+00   0.000000000000e+00   0.000000000000e+00 
  0.000000000000e+00   0.000000000000e+00   0.000000000000e+00   0.000000000000e+00   0.000000000000e+00   0.000000000000e+00   0.000000000000e+00   0.000000000000e+00   0.000000000000e+00 
  0.000000000000e+00   0.000000000000e+00   0.000000000000e+00   0.000000000000e+00   0.000000000000e+00   0.000000000000e+00   0.000000000000e+00   0.000000000000e+00   0.000000000000e+00 
  0.000000000000e+00   0.000000000000e+00   0.000000000000e+00   0.000000000000e+00   0.000000000000e+00   0.000000000000e+00   0.000000000000e+00   0.000000000000e+00   0.000000000000e+00 
  0.000000000000e+00   0.000000000000e+00   0.000000000000e+00   0.000000000000e+00   0.000000000000e+00   0.000000000000e+00   0.000000000000e+00   0.000000000000e+00   0.000000000000e+00 
  0.000000000000e+00   0.000000000000e+00   1.042834663391e+01   1.079805946350e+01   9.544544219971e+00   8.147097587585e+00   7.228582859039e+00   5.592193603516e+00   5.221670150757e+00 
  5.066358089447e+00   4.921333789825e+00   6.035558700562e+00   4.991091251373e+00   2.825835227966e+00   2.037254095078e+00   2.001227855682e+00   3.223054170609e+00   5.451233386993e+00 
  4.404955863953e+00   1.723622560501e+00   0.000000000000e+00   0.000000000000e+00   9.555647850037e+00   9.823744773865e+00   9.023094177246e+00   8.032923698425e+00   8.099189758301e+00 
  8.759334564209e+00   8.974617958069e+00   8.606826782227e+00   7.263593196869e+00   6.640672683716e+00   5.175329208374e+00   1.190940284729e+01   1.208771514893e+01   1.191688823700e+01 
  4.424277782440e+00   5.967901229858e+00   4.891147136688e+00   1.188403797150e+01   0.000000000000e+00   0.000000000000e+00   7.380666732788e+00   7.407867431641e+00   7.123870849609e+00 
  6.851374149323e+00   6.984572410583e+00   7.318560123444e+00   7.207920551300e+00   6.623470306396e+00   5.343007087708e+00   5.694690704346e+00   5.850271224976e+00   4.861362457275e+00 
  4.574680328369e+00   4.728278636932e+00   5.829095363617e+00   6.414131641388e+00   5.968046188354e+00   4.755732059479e+00   0.000000000000e+00   0.000000000000e+00   6.153575897217e+00 
  6.149499893188e+00   6.115437507629e+00   6.123828887939e+00   6.231955528259e+00   6.351269721985e+00   6.225708961487e+00   5.782808780670e+00   5.226770401001e+00   5.137338161469e+00 
  5.261225223541e+00   5.085208892822e+00   4.930579185486e+00   4.915720462799e+00   5.148989200592e+00   5.279928684235e+00   5.146582603455e+00   4.840177059174e+00   0.000000000000e+00 
  0.000000000000e+00   5.373343467712e+00   5.321879386902e+00   5.410885810852e+00   5.518678665161e+00   5.692237377167e+00   5.820184707642e+00   5.696328639984e+00   5.467435359955e+00 
  5.490931510925e+00   4.819678783417e+00   4.470014095306e+00   4.420291900635e+00   4.331024646759e+00   4.235742092133e+00   4.327237129211e+00   4.234241008759e+00   4.152471542358e+00 
  4.075830936432e+00   0.000000000000e+00   0.000000000000e+00   5.073326587677e+00   5.090521812439e+00   5.281844139099e+00   5.598945617676e+00   6.050726890564e+00   6.514995574951e+00 
  6.671931743622e+00   6.274883747101e+00   5.765549182892e+00   5.075994491577e+00   4.791567802429e+00   4.585001468658e+00   4.450484275818e+00   4.346728324890e+00   4.299901008606e+00 
  4.270339965820e+00   4.257605075836e+00   4.233925342560e+00   0.000000000000e+00   0.000000000000e+00   4.739210128784e+00   4.861973762512e+00   5.033570766449e+00   5.479584217072e+00 
  6.284638404846e+00   7.261796951294e+00   8.058359146118e+00   7.076109886169e+00   6.056003570557e+00   5.146407127380e+00   4.717628002167e+00   4.444525241852e+00   4.278411865234e+00 
  4.173233985901e+00   4.108170986176e+00   4.082936763763e+00   4.067247867584e+00   4.054560184479e+00   0.000000000000e+00   0.000000000000e+00   4.671120643616e+00   4.876092910767e+00 
  4.736975193024e+00   5.308753490448e+00   6.790508747101e+00   8.482330322266e+00   1.033404254913e+01   8.303087234497e+00   6.697621345520e+00   5.062378883362e+00   4.330380916595e+00 
  4.041093826294e+00   3.877704620361e+00   3.788511514664e+00   3.740946769714e+00   3.710518121719e+00   3.698536872864e+00   3.688919782639e+00   0.000000000000e+00   0.000000000000e+00 
  4.811311721802e+00   5.239719867706e+00   5.041627883911e+00   5.327718257904e+00   6.176160335541e+00   7.106915473938e+00   7.965533256531e+00   6.977945804596e+00   5.966067790985e+00 
  4.984099864960e+00   4.431260108948e+00   4.135993480682e+00   3.978740215302e+00   3.902159452438e+00   3.865709543228e+00   3.852514505386e+00   3.849985361099e+00   3.845829248428e+00 
  0.000000000000e+00   0.000000000000e+00   4.549620628357e+00   4.759812355042e+00   4.789104938507e+00   5.066836357117e+00   5.562092781067e+00   6.100304603577e+00   6.412355899811e+00 
  5.924683094025e+00   5.251872062683e+00   4.632658481598e+00   4.186973094940e+00   3.959830284119e+00   3.867316961288e+00   3.834029197693e+00   3.831067800522e+00   3.841037750244e+00 
  3.848133325577e+00   3.833073854446e+00   0.000000000000e+00   0.000000000000e+00   4.483134746552e+00   4.559042930603e+00   4.688231945038e+00   4.828180789948e+00   5.076405048370e+00 
  5.272426128387e+00   5.318392276764e+00   5.064195156097e+00   4.634682178497e+00   4.151757717133e+00   3.804022312164e+00   3.725854158401e+00   3.754364013672e+00   3.817826986313e+00 
  3.868305921555e+00   3.912160873413e+00   3.934101104736e+00   3.937498807907e+00   0.000000000000e+00   0.000000000000e+00   4.694570541382e+00   4.720947742462e+00   4.788812637329e+00 
  4.868849754333e+00   4.982641696930e+00   5.053189277649e+00   5.008281707764e+00   4.769263744354e+00   4.381351470947e+00   3.878288269043e+00   3.436390161514e+00   3.591985464096e+00 
  3.806177377701e+00   3.964290142059e+00   4.061939239502e+00   4.123978137970e+00   4.156476497650e+00   4.177592277527e+00   0.000000000000e+00   0.000000000000e+00   4.862912178040e+00 
  4.850080490112e+00   4.890335559845e+00   4.950580120087e+00   4.986642360687e+00   4.977736949921e+00   4.884603500366e+00   4.655300617218e+00   4.263865947723e+00   3.664715290070e+00 
  2.872468709946e+00   3.480549097061e+00   3.908112764359e+00   4.156624794006e+00   4.306329250336e+00   4.373944282532e+00   4.422239303589e+00   4.424291610718e+00   0.000000000000e+00 
  0.000000000000e+00   5.065188884735e+00   5.066253185272e+00   5.062456130981e+00   5.055422306061e+00   5.045074462891e+00   5.002786636353e+00   4.887351989746e+00   4.683097839355e+00 
  4.441964149475e+00   4.017361640930e+00   3.690156698227e+00   3.913989305496e+00   4.181906223297e+00   4.354850769043e+00   4.458611011505e+00   4.516460418701e+00   4.625677108765e+00 
  4.570244312286e+00   0.000000000000e+00   0.000000000000e+00   5.271927833557e+00   5.238355159760e+00   5.236703872681e+00   5.227942943573e+00   5.213247299194e+00   5.175254821777e+00 
  5.089744567871e+00   4.939782619476e+00   4.765885829926e+00   4.544847488403e+00   4.405670166016e+00   4.467992782593e+00   4.592817783356e+00   4.711029052734e+00   4.801857948303e+00 
  4.842277050018e+00   4.924553394318e+00   4.874451160431e+00   0.000000000000e+00   0.000000000000e+00   5.410135746002e+00   5.379899978638e+00   5.405378818512e+00   5.399340152740e+00 
  5.378258705139e+00   5.334792137146e+00   5.267251014709e+00   5.170305728912e+00   5.051791191101e+00   4.936870098114e+00   4.864146709442e+00   4.874732494354e+00   4.930007457733e+00 
  4.998220920563e+00   5.061651229858e+00   5.093735218048e+00   5.144470691681e+00   5.081853389740e+00   0.000000000000e+00   0.000000000000e+00   5.438216209412e+00   5.462112426758e+00 
  5.469875812531e+00   5.450908660889e+00   5.437427997589e+00   5.408316612244e+00   5.361674308777e+00   5.274965286255e+00   5.218220233917e+00   5.138737678528e+00   5.052277565002e+00 
  5.077362060547e+00   5.117177963257e+00   5.161231517792e+00   5.185621261597e+00   5.208017349243e+00   5.236154556274e+00   5.243280410767e+00   0.000000000000e+00   0.000000000000e+00 
  5.665182113647e+00   5.705517768860e+00   5.755511760712e+00   5.805344104767e+00   5.783347606659e+00   5.741443634033e+00   5.664604187012e+00   5.611605167389e+00   5.512236595154e+00 
  5.472503662109e+00   5.489719390869e+00   5.429115772247e+00   5.421822071075e+00   5.443164348602e+00   5.492950916290e+00   5.514416694641e+00   5.496639251709e+00   5.476732730865e+00 
  0.000000000000e+00   0.000000000000e+00   0.000000000000e+00   0.000000000000e+00   0.000000000000e+00   0.000000000000e+00   0.000000000000e+00   0.000000000000e+00   0.000000000000e+00 
  0.000000000000e+00   0.000000000000e+00   0.000000000000e+00   0.000000000000e+00   0.000000000000e+00   0.000000000000e+00   0.000000000000e+00   0.000000000000e+00   0.000000000000e+00 
  0.000000000000e+00   0.000000000000e+00   0.000000000000e+00   0.000000000000e+00   0.000000000000e+00   0.000000000000e+00   0.000000000000e+00   0.000000000000e+00   0.000000000000e+00 
  0.000000000000e+00   0.000000000000e+00   0.000000000000e+00   0.000000000000e+00   0.000000000000e+00   0.000000000000e+00   0.000000000000e+00   0.000000000000e+00   0.000000000000e+00 
  0.000000000000e+00   0.000000000000e+00   0.000000000000e+00   0.000000000000e+00   0.000000000000e+00   0.000000000000e+00   6.133389949799e+00   6.125468254089e+00   5.728070259094e+00 
  5.249027252197e+00   4.943784713745e+00   4.614912509918e+00   4.378135204315e+00   4.001007556915e+00   3.482040166855e+00   3.553632259369e+00   3.228118181229e+00   2.398838043213e+00 
  1.999890923500e+00   2.082903862000e+00   2.739928245544e+00   3.397887706757e+00   3.038433313370e+00   2.108181238174e+00   0.000000000000e+00   0.000000000000e+00   5.424767971039e+00 
  5.439261913300e+00   5.238342285156e+00   5.008400917053e+00   5.166818141937e+00   5.625142574310e+00   5.625472545624e+00   4.973404407501e+00   3.452822685242e+00   3.551004409790e+00 
  3.599986076355e+00   2.588930130005e+00   2.311754941940e+00   2.458227396011e+00   3.500275373459e+00   4.017813682556e+00   3.649056911469e+00   2.497541904449e+00   0.000000000000e+00 
  0.000000000000e+00   4.767901897430e+00   4.679754734039e+00   4.721733570099e+00   5.037745475769e+00   5.372924327850e+00   5.492609977722e+00   5.091258525848e+00   3.913824558258e+00 
  5.324744224548e+00   3.653326749802e+00   5.561473846436e+00   5.743276119232e+00   5.579115390778e+00   5.611024856567e+00   5.996968269348e+00   6.208312988281e+00   6.014862537384e+00 
  5.550187110901e+00   0.000000000000e+00   0.000000000000e+00   4.222431182861e+00   4.206714153290e+00   4.238214015961e+00   4.380836009979e+00   4.522370815277e+00   4.576607227325e+00 
  4.372019767761e+00   3.822436332703e+00   2.897867441177e+00   3.529890298843e+00   4.290421485901e+00   4.455233097076e+00   4.390221595764e+00   4.377910614014e+00   4.481325149536e+00 
  4.540021896362e+00   4.458340167999e+00   4.297359943390e+00   0.000000000000e+00   0.000000000000e+00   3.736705780029e+00   3.770888566971e+00   3.843530178070e+00   3.959496259689e+00 
  4.100380897522e+00   4.190586566925e+00   4.111649990082e+00   3.830785036087e+00   3.520720005035e+00   3.456157207489e+00   3.542743682861e+00   3.567221641541e+00   3.521525859833e+00 
  3.481162309647e+00   3.496050119400e+00   3.488887786865e+00   3.453927040100e+00   3.400742769241e+00   0.000000000000e+00   0.000000000000e+00   3.473601341248e+00   3.536108970642e+00 
  3.658205270767e+00   3.843968629837e+00   4.086645603180e+00   4.306869029999e+00   4.360034465790e+00   4.123657703400e+00   3.780238389969e+00   3.500639200211e+00   3.363164901733e+00 
  3.256572723389e+00   3.176893949509e+00   3.129495620728e+00   3.112799406052e+00   3.104902267456e+00   3.092006921768e+00   3.071034669876e+00   0.000000000000e+00   0.000000000000e+00 