# vtk DataFile Version 2.0
Written using VisIt writer
ASCII
DATASET RECTILINEAR_GRID
DIMENSIONS 20 20 20
X_COORDINATES 20 float
  0.000000000000e+00   1.000000000000e+00   2.000000000000e+00   3.000000000000e+00   4.000000000000e+00   5.000000000000e+00   6.000000000000e+00   7.000000000000e+00   8.000000000000e+00 
  9.000000000000e+00   1.000000000000e+01   1.100000000000e+01   1.200000000000e+01   1.300000000000e+01   1.400000000000e+01   1.500000000000e+01   1.600000000000e+01   1.700000000000e+01 
  1.800000000000e+01   1.900000000000e+01 
Y_COORDINATES 20 float
  0.000000000000e+00   1.000000000000e+00   2.000000000000e+00   3.000000000000e+00   4.000000000000e+00   5.000000000000e+00   6.000000000000e+00   7.000000000000e+00   8.000000000000e+00 
  9.000000000000e+00   1.000000000000e+01   1.100000000000e+01   1.200000000000e+01   1.300000000000e+01   1.400000000000e+01   1.500000000000e+01   1.600000000000e+01   1.700000000000e+01 
  1.800000000000e+01   1.900000000000e+01 
Z_COORDINATES 20 float
  0.000000000000e+00   1.000000000000e+00   2.000000000000e+00   3.000000000000e+00   4.000000000000e+00   5.000000000000e+00   6.000000000000e+00   7.000000000000e+00   8.000000000000e+00 
  9.000000000000e+00   1.000000000000e+01   1.100000000000e+01   1.200000000000e+01   1.300000000000e+01   1.400000000000e+01   1.500000000000e+01   1.600000000000e+01   1.700000000000e+01 
  1.800000000000e+01   1.900000000000e+01 
CELL_DATA 6859
POINT_DATA 8000
SCALARS pressure float
LOOKUP_TABLE default
  0.000000000000e+00   0.000000000000e+00   0.000000000000e+00   0.000000000000e+00   0.000000000000e+00   0.000000000000e+00   0.000000000000e+00   0.000000000000e+00   0.000000000000e+00 
  0.000000000000e+00   0.000000000000e+00   0.000000000000e+00   0.000000000000e+00   0.000000000000e+00   0.000000000000e+00   0.000000000000e+00   0.000000000000e+00   0.000000000000e+00 
  0.000000000000e+00   0.000000000000e+00   0.000000000000e+00   0.000000000000e+00   0.000000000000e+00   0.000000000000e+00   0.000000000000e+00   0.000000000000e+00   0.000000000000e+00 
  0.000000000000e+00   0.000000000000e+00   0.000000000000e+00   0.000000000000e+00   0.000000000000e+00   0.000000000000e+00   0.000000000000e+00   0.000000000000e+00   0.000000000000e+00 
  0.000000000000e+00   0.000000000000e+00   0.000000000000e+00   0.000000000000e+00   0.000000000000e+00   0.000000000000e+00   0.000000000000e+00   0.000000000000e+00   0.000000000000e+00 
  0.000000000000e+00   0.000000000000e+00   0.000000000000e+00   0.000000000000e+00   0.000000000000e+00   0.000000000000e+00   0.000000000000e+00   0.000000000000e+00   0.000000000000e+00 
  0.000000000000e+00   0.000000000000e+00   0.000000000000e+00   0.000000000000e+00   0.000000000000e+00   0.000000000000e+00   0.000000000000e+00   0.000000000000e+00   0.000000000000e+00 
  0.000000000000e+00   0.000000000000e+00   0.000000000000e+00   0.000000000000e+00   0.000000000000e+00   0.000000000000e+00   0.000000000000e+00   0.000000000000e+00   0.000000000000e+00 
  0.000000000000e+00   0.000000000000e+00   0.000000000000e+00   0.000000000000e+00   0.000000000000e+00   0.000000000000e+00   0.000000000000e+00   0.000000000000e+00   0.000000000000e+00 
  0.000000000000e+00   0.000000000000e+00   0.000000000000e+00   0.000000000000e+00   0.000000000000e+00   0.000000000000e+00   0.000000000000e+00   0.000000000000e+00   0.000000000000e+00 
  0.000000000000e+00   0.000000000000e+00   0.000000000000e+00   0.000000000000e+00   0.000000000000e+00   0.000000000000e+00   0.000000000000e+00   0.000000000000e+00   0.000000000000e+00 
  0.000000000000e+00   0.000000000000e+00   0.000000000000e+00   0.000000000000e+00   0.000000000000e+00   0.000000000000e+00   0.000000000000e+00   0.000000000000e+00   0.000000000000e+00 
  0.000000000000e+00   0.000000000000e+00   0.000000000000e+00   0.000000000000e+00   0.000000000000e+00   0.000000000000e+00   0.000000000000e+00   0.000000000000e+00   0.000000000000e+00 
  0.000000000000e+00   0.000000000000e+00   0.000000000000e+00   0.000000000000e+00   0.000000000000e+00   0.000000000000e+00   0.000000000000e+00   0.000000000000e+00   0.000000000000e+00 
  0.000000000000e+00   0.000000000000e+00   0.000000000000e+00   0.000000000000e+00   0.000000000000e+00   0.000000000000e+00   0.000000000000e+00   0.000000000000e+00   0.000000000000e+00 
  0.000000000000e+00   0.000000000000e+00   0.000000000000e+00   0.000000000000e+00   0.000000000000e+00   0.000000000000e+00   0.000000000000e+00   0.000000000000e+00   0.000000000000e+00 
  0.000000000000e+00   0.000000000000e+00   0.000000000000e+00   0.000000000000e+00   0.000000000000e+00   0.000000000000e+00   0.000000000000e+00   0.000000000000e+00   0.000000000000e+00 
  0.000000000000e+00   0.000000000000e+00   0.000000000000e+00   0.000000000000e+00   0.000000000000e+00   0.000000000000e+00   0.000000000000e+00   0.000000000000e+00   0.000000000000e+00 
  0.000000000000e+00   0.000000000000e+00   0.000000000000e+00   0.000000000000e+00   0.000000000000e+00   0.000000000000e+00   0.000000000000e+00   0.000000000000e+00   0.000000000000e+00 
  0.000000000000e+00   0.000000000000e+00   0.000000000000e+00   0.000000000000e+00   0.000000000000e+00   0.000000000000e+00   0.000000000000e+00   0.000000000000e+00   0.000000000000e+00 
  0.000000000000e+00   0.000000000000e+00   0.000000000000e+00   0.000000000000e+00   0.000000000000e+00   0.000000000000e+00   0.000000000000e+00   0.000000000000e+00   0.000000000000e+00 
  0.000000000000e+00   0.000000000000e+00   0.000000000000e+00   0.000000000000e+00   0.000000000000e+00   0.000000000000e+00   0.000000000000e+00   0.000000000000e+00   0.000000000000e+00 
  0.000000000000e+00   0.000000000000e+00   0.000000000000e+00   0.000000000000e+00   0.000000000000e+00   0.000000000000e+00   0.000000000000e+00   0.000000000000e+00   0.000000000000e+00 
  0.000000000000e+00   0.000000000000e+00   0.000000000000e+00   0.000000000000e+00   0.000000000000e+00   0.000000000000e+00   0.000000000000e+00   0.000000000000e+00   0.000000000000e+00 
  0.000000000000e+00   0.000000000000e+00   0.000000000000e+00   0.000000000000e+00   0.000000000000e+00   0.000000000000e+00   0.000000000000e+00   0.000000000000e+00   0.000000000000e+00 
  0.000000000000e+00   0.000000000000e+00   0.000000000000e+00   0.000000000000e+00   0.000000000000e+00   0.000000000000e+00   0.000000000000e+00   0.000000000000e+00   0.000000000000e+00 
  0.000000000000e+00   0.000000000000e+00   0.000000000000e+00   0.000000000000e+00   0.000000000000e+00   0.000000000000e+00   0.000000000000e+00   0.000000000000e+00   0.000000000000e+00 
  0.000000000000e+00   0.000000000000e+00   0.000000000000e+00   0.000000000000e+00   0.000000000000e+00   0.000000000000e+00   0.000000000000e+00   0.000000000000e+00   0.000000000000e+00 
  0.000000000000e+00   0.000000000000e+00   0.000000000000e+00   0.000000000000e+00   0.000000000000e+00   0.000000000000e+00   0.000000000000e+00   0.000000000000e+00   0.000000000000e+00 
  0.000000000000e+00   0.000000000000e+00   0.000000000000e+00   0.000000000000e+00   0.000000000000e+00   0.000000000000e+00   0.000000000000e+00   0.000000000000e+00   0.000000000000e+00 
  0.000000000000e+00   0.000000000000e+00   0.000000000000e+00   0.000000000000e+00   0.000000000000e+00   0.000000000000e+00   0.000000000000e+00   0.000000000000e+00   0.000000000000e+00 
  0.000000000000e+00   0.000000000000e+00   0.000000000000e+00   0.000000000000e+00   0.000000000000e+00   0.000000000000e+00   0.000000000000e+00   0.000000000000e+00   0.000000000000e+00 
  0.000000000000e+00   0.000000000000e+00   0.000000000000e+00   0.000000000000e+00   0.000000000000e+00   0.000000000000e+00   0.000000000000e+00   0.000000000000e+00   0.000000000000e+00 
  0.000000000000e+00   0.000000000000e+00   0.000000000000e+00   0.000000000000e+00   0.000000000000e+00   0.000000000000e+00   0.000000000000e+00   0.000000000000e+00   0.000000000000e+00 
  0.000000000000e+00   0.000000000000e+00   0.000000000000e+00   0.000000000000e+00   0.000000000000e+00   0.000000000000e+00   0.000000000000e+00   0.000000000000e+00   0.000000000000e+00 
  0.000000000000e+00   0.000000000000e+00   0.000000000000e+00   0.000000000000e+00   0.000000000000e+00   0.000000000000e+00   0.000000000000e+00   0.000000000000e+00   0.000000000000e+00 
  0.000000000000e+00   0.000000000000e+00   0.000000000000e+00   0.000000000000e+00   0.000000000000e+00   0.000000000000e+00   0.000000000000e+00   0.000000000000e+00   0.000000000000e+00 
  0.000000000000e+00   0.000000000000e+00   0.000000000000e+00   0.000000000000e+00   0.000000000000e+00   0.000000000000e+00   0.000000000000e+00   0.000000000000e+00   0.000000000000e+00 
  0.000000000000e+00   0.000000000000e+00   0.000000000000e+00   0.000000000000e+00   0.000000000000e+00   0.000000000000e+00   0.000000000000e+00   0.000000000000e+00   0.000000000000e+00 
  0.000000000000e+00   0.000000000000e+00   0.000000000000e+00   0.000000000000e+00   0.000000000000e+00   0.000000000000e+00   0.000000000000e+00   0.000000000000e+00   0.000000000000e+00 
  0.000000000000e+00   0.000000000000e+00   0.000000000000e+00   0.000000000000e+00   0.000000000000e+00   0.000000000000e+00   0.000000000000e+00   0.000000000000e+00   0.000000000000e+00 
  0.000000000000e+00   0.000000000000e+00   0.000000000000e+00   0.000000000000e+00   0.000000000000e+00   0.000000000000e+00   0.000000000000e+00   0.000000000000e+00   0.000000000000e+00 
  0.000000000000e+00   0.000000000000e+00   0.000000000000e+00   0.000000000000e+00   0.000000000000e+00   0.000000000000e+00   0.000000000000e+00   0.000000000000e+00   0.000000000000e+00 
  0.000000000000e+00   0.000000000000e+00   0.000000000000e+00   0.000000000000e+00   0.000000000000e+00   0.000000000000e+00   0.000000000000e+00   0.000000000000e+00   0.000000000000e+00 
  0.000000000000e+00   0.000000000000e+00   0.000000000000e+00   0.000000000000e+00   0.000000000000e+00   0.000000000000e+00   0.000000000000e+00   0.000000000000e+00   0.000000000000e+00 
  0.000000000000e+00   0.000000000000e+00   0.000000000000e+00   0.000000000000e+00   0.000000000000e+00   0.000000000000e+00   0.000000000000e+00   0.000000000000e+00   0.000000000000e+00 
  0.000000000000e+00   0.000000000000e+00   0.000000000000e+00   0.000000000000e+00   0.000000000000e+00   0.000000000000e+00   0.000000000000e+00   1.201749038696e+01   1.201953983307e+01 
  1.202291202545e+01   1.202655982971e+01   1.202991390228e+01   1.203276824951e+01   1.203508567810e+01   1.203691673279e+01   1.203831863403e+01   1.203933715820e+01   1.204000568390e+01 
  1.204036712646e+01   1.204047393799e+01   1.204039096832e+01   1.204020118713e+01   1.203999423981e+01   1.203970527649e+01   1.204004287720e+01   0.000000000000e+00   0.000000000000e+00 
  1.226989269257e+01   1.227252674103e+01   1.227679061890e+01   1.228100585938e+01   1.228476238251e+01   1.228782653809e+01   1.229020309448e+01   1.229202270508e+01   1.229337882996e+01 
  1.229432582855e+01   1.229489707947e+01   1.229513359070e+01   1.229509639740e+01   1.229485607147e+01   1.229451370239e+01   1.229417419434e+01   1.229378318787e+01   1.229411697388e+01 
  0.000000000000e+00   0.000000000000e+00   1.281704807281e+01   1.282072639465e+01   1.282691287994e+01   1.283191680908e+01   1.283661842346e+01   1.284016990662e+01   1.284254455566e+01 
  1.284420967102e+01   1.284536838531e+01   1.284608268738e+01   1.284637737274e+01   1.284628772736e+01   1.284588336945e+01   1.284525966644e+01   1.284454822540e+01   1.284389591217e+01 
  1.284327125549e+01   1.284359645844e+01   0.000000000000e+00   0.000000000000e+00   1.371264362335e+01   1.371640491486e+01   1.372501087189e+01   1.373164844513e+01   1.373974609375e+01 
  1.374459552765e+01   1.374671554565e+01   1.374795150757e+01   1.374871349335e+01   1.374900245667e+01   1.374878883362e+01   1.374809455872e+01   1.374701023102e+01   1.374567794800e+01 
  1.374429416656e+01   1.374307155609e+01   1.374202919006e+01   1.374231815338e+01   0.000000000000e+00   0.000000000000e+00   1.545923519135e+01   1.547811222076e+01   1.553152179718e+01 
  1.554739856720e+01   1.555239868164e+01   1.555481815338e+01   1.555523681641e+01   1.555566883087e+01   1.555604076385e+01   1.555594825745e+01   1.555517864227e+01   1.555370044708e+01 
  1.555163860321e+01   1.554922103882e+01   1.554676151276e+01   1.554459190369e+01   1.554285335541e+01   1.554310512543e+01   0.000000000000e+00   0.000000000000e+00   1.373952579498e+01 
  1.378205585480e+01   1.400108337402e+01   1.398456382751e+01   1.395181465149e+01   1.395615291595e+01   1.396166610718e+01   1.396582984924e+01   1.396895313263e+01   1.397098922729e+01 
  1.397189521790e+01   1.397171592712e+01   1.397062683105e+01   1.396890449524e+01   1.396692276001e+01   1.396505355835e+01   1.396339702606e+01   1.396378993988e+01   0.000000000000e+00 
  0.000000000000e+00   1.263093471527e+01   1.262896347046e+01   1.272141075134e+01   1.271510505676e+01   1.271215152740e+01   1.272439670563e+01   1.273334598541e+01   1.274013328552e+01 
  1.274535942078e+01   1.274898815155e+01   1.275101184845e+01   1.275152587891e+01   1.275076007843e+01   1.274906826019e+01   1.274693107605e+01   1.274484157562e+01   1.274294853210e+01 
  1.274351215363e+01   0.000000000000e+00   0.000000000000e+00   1.191067028046e+01   1.191234302521e+01   1.191898822784e+01   1.192772865295e+01   1.194674491882e+01   1.196509552002e+01 
  1.197859382629e+01   1.198869323730e+01   1.199611091614e+01   1.200108242035e+01   1.200373840332e+01   1.200426769257e+01   1.200301074982e+01   1.200046920776e+01   1.199733161926e+01 
  1.199430561066e+01   1.199163150787e+01   1.199215221405e+01   0.000000000000e+00   0.000000000000e+00   1.139486312866e+01   1.141156673431e+01   1.143803787231e+01   1.146446990967e+01 
  1.148721790314e+01   1.150625038147e+01   1.152154922485e+01   1.153325653076e+01   1.154158401489e+01   1.154669380188e+01   1.154876422882e+01   1.154808425903e+01   1.154513740540e+01 
  1.154062271118e+01   1.153550434113e+01   1.153077220917e+01   1.152673339844e+01   1.152762126923e+01   0.000000000000e+00   0.000000000000e+00   1.150298309326e+01   1.153621292114e+01 
  1.158248043060e+01   1.162513160706e+01   1.165961551666e+01   1.168661689758e+01   1.170742702484e+01   1.172297286987e+01   1.173371410370e+01   1.173980998993e+01   1.174141311646e+01 
  1.173887729645e+01   1.173290729523e+01   1.172464752197e+01   1.171575927734e+01   1.170797348022e+01   1.170194911957e+01   1.170204257965e+01   0.000000000000e+00   0.000000000000e+00 
  1.240105152130e+01   1.246958351135e+01   1.255641937256e+01   1.262901210785e+01   1.268387413025e+01   1.272577762604e+01   1.275851058960e+01   1.278413391113e+01   1.280313301086e+01 
  1.281508922577e+01   1.281949996948e+01   1.281637001038e+01   1.280662441254e+01   1.279239749908e+01   1.277709293365e+01   1.276416873932e+01   1.275522899628e+01   1.275437831879e+01 
  0.000000000000e+00   0.000000000000e+00   1.313157367706e+01   1.334274196625e+01   1.352718448639e+01   1.363143348694e+01   1.369469833374e+01   1.373953437805e+01   1.377459812164e+01 
  1.380309581757e+01   1.382517147064e+01   1.383946132660e+01   1.384463310242e+01   1.384031581879e+01   1.382734584808e+01   1.380820274353e+01   1.378775501251e+01   1.377174758911e+01 
  1.376266574860e+01   1.376128387451e+01   0.000000000000e+00   0.000000000000e+00   1.390763568878e+01   1.448482799530e+01   1.481784534454e+01   1.492011737823e+01   1.497296237946e+01 
  1.501330757141e+01   1.504600906372e+01   1.507197570801e+01   1.509022712708e+01   1.509896373749e+01   1.509693908691e+01   1.508410453796e+01   1.506101322174e+01   1.503017711639e+01 
  1.499902248383e+01   1.497930335999e+01   1.497745800018e+01   1.498084449768e+01   0.000000000000e+00   0.000000000000e+00   1.614698219299e+01   1.748832702637e+01   1.809983444214e+01 
  1.817590904236e+01   1.820780754089e+01   1.824108123779e+01   1.827368164062e+01   1.830222511292e+01   1.832313919067e+01   1.833301734924e+01   1.832915878296e+01   1.831055450439e+01 
  1.827620887756e+01   1.822811698914e+01   1.817881202698e+01   1.815533828735e+01   1.817713546753e+01   1.821381568909e+01   0.000000000000e+00   0.000000000000e+00   1.610516929626e+01 
  1.609487915039e+01   1.644165039062e+01   1.654146957397e+01   1.661454582214e+01   1.666901969910e+01   1.672441482544e+01   1.678005027771e+01   1.683389663696e+01   1.687651634216e+01 
  1.690109443665e+01   1.690939521790e+01   1.689807701111e+01   1.686285400391e+01   1.680852508545e+01   1.677507781982e+01   1.679031181335e+01   1.702087211609e+01   0.000000000000e+00 
  0.000000000000e+00   1.516213607788e+01   1.497155380249e+01   1.511312198639e+01   1.525130081177e+01   1.536301136017e+01   1.538171386719e+01   1.546083450317e+01   1.555324172974e+01 
  1.559975147247e+01   1.565347385406e+01   1.569517612457e+01   1.569892787933e+01   1.569819259644e+01   1.568023490906e+01   1.560275554657e+01   1.555844688416e+01   1.560543727875e+01 
  1.575158500671e+01   0.000000000000e+00   0.000000000000e+00   1.110690975189e+01   1.349742317200e+01   1.448331832886e+01   1.492390823364e+01   1.534067630768e+01   1.514016437531e+01 
  1.508274173737e+01   1.520911121368e+01   1.536333560944e+01   1.540979099274e+01   1.538880348206e+01   1.543485736847e+01   1.543832874298e+01   1.557718753815e+01   1.534589576721e+01 
  1.513446903229e+01   1.500969886780e+01   1.455754947662e+01   0.000000000000e+00   0.000000000000e+00   1.660205841064e+01   1.350934028625e+01   1.478231048584e+01   1.427119350433e+01 
  1.561368751526e+01   1.506223583221e+01   1.484504413605e+01   1.499033737183e+01   1.516134834290e+01   1.537110042572e+01   1.518580245972e+01   1.523120594025e+01   1.519664001465e+01 
  1.569792652130e+01   1.482993316650e+01   1.494025897980e+01   1.503473377228e+01   1.521867847443e+01   0.000000000000e+00   0.000000000000e+00   0.000000000000e+00   0.000000000000e+00 
  0.000000000000e+00   0.000000000000e+00   0.000000000000e+00   0.000000000000e+00   0.000000000000e+00   0.000000000000e+00   0.000000000000e+00   0.000000000000e+00   0.000000000000e+00 
  0.000000000000e+00   0.000000000000e+00   0.000000000000e+00   0.000000000000e+00   0.000000000000e+00   0.000000000000e+00   0.000000000000e+00   0.000000000000e+00   0.000000000000e+00 
  0.000000000000e+00   0.000000000000e+00   0.000000000000e+00   0.000000000000e+00   0.000000000000e+00   0.000000000000e+00   0.000000000000e+00   0.000000000000e+00   0.000000000000e+00 
  0.000000000000e+00   0.000000000000e+00   0.000000000000e+00   0.000000000000e+00   0.000000000000e+00   0.000000000000e+00   0.000000000000e+00   0.000000000000e+00   0.000000000000e+00 
  0.000000000000e+00   0.000000000000e+00   1.068407344818e+01   1.068584728241e+01   1.068878459930e+01   1.069204616547e+01   1.069509124756e+01   1.069770622253e+01   1.069985103607e+01 
  1.070156192780e+01   1.070288276672e+01   1.070384979248e+01   1.070449161530e+01   1.070484447479e+01   1.070495891571e+01   1.070489597321e+01   1.070473289490e+01   1.070454978943e+01 
  1.070428466797e+01   1.070460510254e+01   0.000000000000e+00   0.000000000000e+00   1.086248397827e+01   1.086479091644e+01   1.086851596832e+01   1.087238025665e+01   1.087580394745e+01 
  1.087860298157e+01   1.088081073761e+01   1.088252925873e+01   1.088383102417e+01   1.088475608826e+01   1.088533401489e+01   1.088559818268e+01   1.088560581207e+01   1.088542366028e+01 
  1.088514041901e+01   1.088485145569e+01   1.088450050354e+01   1.088482189178e+01   0.000000000000e+00   0.000000000000e+00   1.122142505646e+01   1.122480869293e+01   1.123019313812e+01 
  1.123534011841e+01   1.123969173431e+01   1.124290370941e+01   1.124520111084e+01   1.124689960480e+01   1.124813842773e+01   1.124896240234e+01   1.124939155579e+01   1.124945926666e+01 
  1.124922752380e+01   1.124877929688e+01   1.124823093414e+01   1.124770832062e+01   1.124717521667e+01   1.124749279022e+01   0.000000000000e+00   0.000000000000e+00   1.175112056732e+01 
  1.175582790375e+01   1.176353073120e+01   1.177104187012e+01   1.177760028839e+01   1.178159618378e+01   1.178392505646e+01   1.178555011749e+01   1.178669929504e+01   1.178738212585e+01 
  1.178758621216e+01   1.178733539581e+01   1.178670501709e+01   1.178580951691e+01   1.178481674194e+01   1.178390884399e+01   1.178308010101e+01   1.178339099884e+01   0.000000000000e+00 
  0.000000000000e+00   1.250379371643e+01   1.251553249359e+01   1.253864860535e+01   1.255189228058e+01   1.255976581573e+01   1.256379222870e+01   1.256607055664e+01   1.256795978546e+01 
  1.256944847107e+01   1.257034587860e+01   1.257055473328e+01   1.257008171082e+01   1.256902790070e+01   1.256756973267e+01   1.256597042084e+01   1.256451129913e+01   1.256324863434e+01 
  1.256352329254e+01   0.000000000000e+00   0.000000000000e+00   1.160229873657e+01   1.159719181061e+01   1.163272380829e+01   1.161938571930e+01   1.161822414398e+01   1.162783145905e+01 
  1.163498878479e+01   1.164008235931e+01   1.164375400543e+01   1.164619445801e+01   1.164748764038e+01   1.164773654938e+01   1.164711475372e+01   1.164586353302e+01   1.164431953430e+01 
  1.164282512665e+01   1.164145278931e+01   1.164188003540e+01   0.000000000000e+00   0.000000000000e+00   1.090499210358e+01   1.089834976196e+01   1.090784549713e+01   1.091090583801e+01 
  1.092253303528e+01   1.093451404572e+01   1.094313049316e+01   1.094982624054e+01   1.095493984222e+01   1.095847702026e+01   1.096046447754e+01   1.096100997925e+01   1.096034526825e+01 
  1.095880031586e+01   1.095682621002e+01   1.095487785339e+01   1.095310115814e+01   1.095359134674e+01   0.000000000000e+00   0.000000000000e+00   1.038887405396e+01   1.039484119415e+01 
  1.040643787384e+01   1.041908359528e+01   1.043556690216e+01   1.045044231415e+01   1.046207714081e+01   1.047117805481e+01   1.047800159454e+01   1.048261737823e+01   1.048508167267e+01 
  1.048553752899e+01   1.048429870605e+01   1.048184108734e+01   1.047881698608e+01   1.047588634491e+01   1.047332859039e+01   1.047376441956e+01   0.000000000000e+00   0.000000000000e+00 
  1.005240917206e+01   1.006606769562e+01   1.008782291412e+01   1.011125087738e+01   1.013319015503e+01   1.015189361572e+01   1.016703414917e+01   1.017889213562e+01   1.018765354156e+01 
  1.019336414337e+01   1.019605350494e+01   1.019589233398e+01   1.019330310822e+01   1.018898200989e+01   1.018394184113e+01   1.017921257019e+01   1.017529582977e+01   1.017552471161e+01 
  0.000000000000e+00   0.000000000000e+00   1.000946617126e+01   1.003624439240e+01   1.007461261749e+01   1.011188793182e+01   1.014346313477e+01   1.016893577576e+01   1.018908119202e+01 
  1.020471477509e+01   1.021617984772e+01   1.022342491150e+01   1.022638130188e+01   1.022523021698e+01   1.022051811218e+01   1.021325206757e+01   1.020503902435e+01   1.019758510590e+01 
  1.019183158875e+01   1.019127368927e+01   0.000000000000e+00   0.000000000000e+00   1.039000606537e+01   1.044467163086e+01   1.051392936707e+01   1.057348155975e+01   1.061953544617e+01 
  1.065481567383e+01   1.068231487274e+01   1.070400333405e+01   1.072032165527e+01   1.073077583313e+01   1.073489284515e+01   1.073264312744e+01   1.072465515137e+01   1.071249961853e+01 
  1.069899463654e+01   1.068723773956e+01   1.067908763885e+01   1.067719841003e+01   0.000000000000e+00   0.000000000000e+00   1.100108146667e+01   1.112852001190e+01   1.125860977173e+01 
  1.134709930420e+01   1.140574645996e+01   1.144732761383e+01   1.147906494141e+01   1.150460720062e+01   1.152409553528e+01   1.153627395630e+01   1.154018306732e+01   1.153550910950e+01 
  1.152266407013e+01   1.150346088409e+01   1.148239517212e+01   1.146506404877e+01   1.145479869843e+01   1.145176124573e+01   0.000000000000e+00   0.000000000000e+00   1.187848186493e+01 
  1.218117332458e+01   1.240415668488e+01   1.251137638092e+01   1.257377243042e+01   1.261771774292e+01   1.265266418457e+01   1.268238639832e+01   1.270546722412e+01   1.271932601929e+01 
  1.272224807739e+01   1.271374702454e+01   1.269353866577e+01   1.266283512115e+01   1.262876319885e+01   1.260253715515e+01   1.259097099304e+01   1.258836269379e+01   0.000000000000e+00 
  0.000000000000e+00   1.304136466980e+01   1.361728096008e+01   1.394836330414e+01   1.405480575562e+01   1.411568927765e+01   1.416452121735e+01   1.420960044861e+01   1.425347614288e+01 
  1.429141616821e+01   1.431806468964e+01   1.432903003693e+01   1.432314777374e+01   1.429870128632e+01   1.425462913513e+01   1.420200252533e+01   1.416418170929e+01   1.415585899353e+01 
  1.415697765350e+01   0.000000000000e+00   0.000000000000e+00   1.305673789978e+01   1.329170227051e+01   1.353821945190e+01   1.366520690918e+01   1.374957656860e+01   1.380986404419e+01 
  1.386800956726e+01   1.392843151093e+01   1.398266029358e+01   1.402486038208e+01   1.404882049561e+01   1.405446243286e+01   1.403919696808e+01   1.399150943756e+01   1.391869926453e+01 
  1.385853195190e+01   1.383351707458e+01   1.383213138580e+01   0.000000000000e+00   0.000000000000e+00   1.291749000549e+01   1.292222309113e+01   1.314647006989e+01   1.329008388519e+01 
  1.338919830322e+01   1.343956661224e+01   1.351113033295e+01   1.359323120117e+01   1.366438674927e+01   1.373355865479e+01   1.377723884583e+01   1.378533744812e+01   1.378114032745e+01 
  1.373502159119e+01   1.364139175415e+01   1.356398010254e+01   1.350571918488e+01   1.352997493744e+01   0.000000000000e+00   0.000000000000e+00   1.209088039398e+01   1.267282009125e+01 
  1.309476661682e+01   1.340449142456e+01   1.357522964478e+01   1.350155639648e+01   1.348896026611e+01   1.360990047455e+01   1.370611858368e+01   1.382648086548e+01   1.385741424561e+01 
  1.385787391663e+01   1.387398624420e+01   1.394452476501e+01   1.382480812073e+01   1.369135093689e+01   1.354296779633e+01   1.363601016998e+01   0.000000000000e+00   0.000000000000e+00 
  1.351218318939e+01   1.318941974640e+01   1.334826755524e+01   1.385119152069e+01   1.418061065674e+01   1.375732040405e+01   1.339517879486e+01   1.361795806885e+01   1.376581954956e+01 
  1.401598167419e+01   1.413007164001e+01   1.405986213684e+01   1.387217044830e+01   1.402248859406e+01   1.374714660645e+01   1.359948825836e+01   1.358000183105e+01   1.378104972839e+01 
  0.000000000000e+00   0.000000000000e+00   0.000000000000e+00   0.000000000000e+00   0.000000000000e+00   0.000000000000e+00   0.000000000000e+00   0.000000000000e+00   0.000000000000e+00 
  0.000000000000e+00   0.000000000000e+00   0.000000000000e+00   0.000000000000e+00   0.000000000000e+00   0.000000000000e+00   0.000000000000e+00   0.000000000000e+00   0.000000000000e+00 
  0.000000000000e+00   0.000000000000e+00   0.000000000000e+00   0.000000000000e+00   0.000000000000e+00   0.000000000000e+00   0.000000000000e+00   0.000000000000e+00   0.000000000000e+00 
  0.000000000000e+00   0.000000000000e+00   0.000000000000e+00   0.000000000000e+00   0.000000000000e+00   0.000000000000e+00   0.000000000000e+00   0.000000000000e+00   0.000000000000e+00 
  0.000000000000e+00   0.000000000000e+00   0.000000000000e+00   0.000000000000e+00   0.000000000000e+00   0.000000000000e+00   9.101754188538e+00   9.103114128113e+00   9.105391502380e+00 
  9.107999801636e+00   9.110502243042e+00   9.112702369690e+00   9.114549636841e+00   9.116056442261e+00   9.117242813110e+00   9.118127822876e+00   9.118727684021e+00   9.119070053101e+00 
  9.119200706482e+00   9.119175910950e+00   9.119062423706e+00   9.118923187256e+00   9.118698120117e+00   9.118988990784e+00   0.000000000000e+00   0.000000000000e+00   9.205670356750e+00 
  9.207380294800e+00   9.210173606873e+00   9.213203430176e+00   9.215968132019e+00   9.218304634094e+00   9.220212936401e+00   9.221745491028e+00   9.222939491272e+00   9.223815917969e+00 
  9.224388122559e+00   9.224680900574e+00   9.224743843079e+00   9.224639892578e+00   9.224442481995e+00   9.224223136902e+00   9.223926544189e+00   9.224225044250e+00   0.000000000000e+00 
  0.000000000000e+00   9.394815444946e+00   9.397337913513e+00   9.401334762573e+00   9.405335426331e+00   9.408696174622e+00   9.411333084106e+00   9.413381576538e+00   9.414987564087e+00 
  9.416217803955e+00   9.417091369629e+00   9.417613983154e+00   9.417814254761e+00   9.417749404907e+00   9.417484283447e+00   9.417113304138e+00   9.416728973389e+00   9.416290283203e+00 
  9.416587829590e+00   0.000000000000e+00   0.000000000000e+00   9.620392799377e+00   9.624568939209e+00   9.631023406982e+00   9.636831283569e+00   9.641212463379e+00   9.644304275513e+00 
  9.646583557129e+00   9.648358345032e+00   9.649714469910e+00   9.650650024414e+00   9.651154518127e+00   9.651244163513e+00   9.650981903076e+00   9.650460243225e+00   9.649819374084e+00 
  9.649190902710e+00   9.648555755615e+00   9.648837089539e+00   0.000000000000e+00   0.000000000000e+00   9.761501312256e+00   9.767775535583e+00   9.777874946594e+00   9.785855293274e+00 
  9.791462898254e+00   9.795270919800e+00   9.798122406006e+00   9.800444602966e+00   9.802263259888e+00   9.803521156311e+00   9.804180145264e+00   9.804254531860e+00   9.803817749023e+00 
  9.802999496460e+00   9.802020072937e+00   9.801080703735e+00   9.800197601318e+00   9.800458908081e+00   0.000000000000e+00   0.000000000000e+00   9.397496223450e+00   9.397994041443e+00 
  9.403827667236e+00   9.406884193420e+00   9.412815093994e+00   9.419007301331e+00   9.423894882202e+00   9.427772521973e+00   9.430743217468e+00   9.432808876038e+00   9.433965682983e+00 
  9.434267044067e+00   9.433831214905e+00   9.432834625244e+00   9.431581497192e+00   9.430355072021e+00   9.429226875305e+00   9.429555892944e+00   0.000000000000e+00   0.000000000000e+00 