# vtk DataFile Version 2.0
Written using VisIt writer
ASCII
DATASET RECTILINEAR_GRID
DIMENSIONS 20 20 20
X_COORDINATES 20 float
  0.000000000000e+00   1.000000000000e+00   2.000000000000e+00   3.000000000000e+00   4.000000000000e+00   5.000000000000e+00   6.000000000000e+00   7.000000000000e+00   8.000000000000e+00 
  9.000000000000e+00   1.000000000000e+01   1.100000000000e+01   1.200000000000e+01   1.300000000000e+01   1.400000000000e+01   1.500000000000e+01   1.600000000000e+01   1.700000000000e+01 
  1.800000000000e+01   1.900000000000e+01 
Y_COORDINATES 20 float
  0.000000000000e+00   1.000000000000e+00   2.000000000000e+00   3.000000000000e+00   4.000000000000e+00   5.000000000000e+00   6.000000000000e+00   7.000000000000e+00   8.000000000000e+00 
  9.000000000000e+00   1.000000000000e+01   1.100000000000e+01   1.200000000000e+01   1.300000000000e+01   1.400000000000e+01   1.500000000000e+01   1.600000000000e+01   1.700000000000e+01 
  1.800000000000e+01   1.900000000000e+01 
Z_COORDINATES 20 float
  0.000000000000e+00   1.000000000000e+00   2.000000000000e+00   3.000000000000e+00   4.000000000000e+00   5.000000000000e+00   6.000000000000e+00   7.000000000000e+00   8.000000000000e+00 
  9.000000000000e+00   1.000000000000e+01   1.100000000000e+01   1.200000000000e+01   1.300000000000e+01   1.400000000000e+01   1.500000000000e+01   1.600000000000e+01   1.700000000000e+01 
  1.800000000000e+01   1.900000000000e+01 
CELL_DATA 6859
POINT_DATA 8000
SCALARS pressure float
LOOKUP_TABLE default
  0.000000000000e+00   0.000000000000e+00   0.000000000000e+00   0.000000000000e+00   0.000000000000e+00   0.000000000000e+00   0.000000000000e+00   0.000000000000e+00   0.000000000000e+00 
  0.000000000000e+00   0.000000000000e+00   0.000000000000e+00   0.000000000000e+00   0.000000000000e+00   0.000000000000e+00   0.000000000000e+00   0.000000000000e+00   0.000000000000e+00 
  0.000000000000e+00   0.000000000000e+00   0.000000000000e+00   0.000000000000e+00   0.000000000000e+00   0.000000000000e+00   0.000000000000e+00   0.000000000000e+00   0.000000000000e+00 
  0.000000000000e+00   0.000000000000e+00   0.000000000000e+00   0.000000000000e+00   0.000000000000e+00   0.000000000000e+00   0.000000000000e+00   0.000000000000e+00   0.000000000000e+00 
  0.000000000000e+00   0.000000000000e+00   0.000000000000e+00   0.000000000000e+00   0.000000000000e+00   0.000000000000e+00   0.000000000000e+00   0.000000000000e+00   0.000000000000e+00 
  0.000000000000e+00   0.000000000000e+00   0.000000000000e+00   0.000000000000e+00   0.000000000000e+00   0.000000000000e+00   0.000000000000e+00   0.000000000000e+00   0.000000000000e+00 
  0.000000000000e+00   0.000000000000e+00   0.000000000000e+00   0.000000000000e+00   0.000000000000e+00   0.000000000000e+00   0.000000000000e+00   0.000000000000e+00   0.000000000000e+00 
  0.000000000000e+00   0.000000000000e+00   0.000000000000e+00   0.000000000000e+00   0.000000000000e+00   0.000000000000e+00   0.000000000000e+00   0.000000000000e+00   0.000000000000e+00 
  0.000000000000e+00   0.000000000000e+00   0.000000000000e+00   0.000000000000e+00   0.000000000000e+00   0.000000000000e+00   0.000000000000e+00   0.000000000000e+00   0.000000000000e+00 
  0.000000000000e+00   0.000000000000e+00   0.000000000000e+00   0.000000000000e+00   0.000000000000e+00   0.000000000000e+00   0.000000000000e+00   0.000000000000e+00   0.000000000000e+00 
  0.000000000000e+00   0.000000000000e+00   0.000000000000e+00   0.000000000000e+00   0.000000000000e+00   0.000000000000e+00   0.000000000000e+00   0.000000000000e+00   0.000000000000e+00 
  0.000000000000e+00   0.000000000000e+00   0.000000000000e+00   0.000000000000e+00   0.000000000000e+00   0.000000000000e+00   0.000000000000e+00   0.000000000000e+00   0.000000000000e+00 
  0.000000000000e+00   0.000000000000e+00   0.000000000000e+00   0.000000000000e+00   0.000000000000e+00   0.000000000000e+00   0.000000000000e+00   0.000000000000e+00   0.000000000000e+00 
  0.000000000000e+00   0.000000000000e+00   0.000000000000e+00   0.000000000000e+00   0.000000000000e+00   0.000000000000e+00   0.000000000000e+00   0.000000000000e+00   0.000000000000e+00 
  0.000000000000e+00   0.000000000000e+00   0.000000000000e+00   0.000000000000e+00   0.000000000000e+00   0.000000000000e+00   0.000000000000e+00   0.000000000000e+00   0.000000000000e+00 
  0.000000000000e+00   0.000000000000e+00   0.000000000000e+00   0.000000000000e+00   0.000000000000e+00   0.000000000000e+00   0.000000000000e+00   0.000000000000e+00   0.000000000000e+00 
  0.000000000000e+00   0.000000000000e+00   0.000000000000e+00   0.000000000000e+00   0.000000000000e+00   0.000000000000e+00   0.000000000000e+00   0.000000000000e+00   0.000000000000e+00 
  0.000000000000e+00   0.000000000000e+00   0.000000000000e+00   0.000000000000e+00   0.000000000000e+00   0.000000000000e+00   0.000000000000e+00   0.000000000000e+00   0.000000000000e+00 
  0.000000000000e+00   0.000000000000e+00   0.000000000000e+00   0.000000000000e+00   0.000000000000e+00   0.000000000000e+00   0.000000000000e+00   0.000000000000e+00   0.000000000000e+00 
  0.000000000000e+00   0.000000000000e+00   0.000000000000e+00   0.000000000000e+00   0.000000000000e+00   0.000000000000e+00   0.000000000000e+00   0.000000000000e+00   0.000000000000e+00 
  0.000000000000e+00   0.000000000000e+00   0.000000000000e+00   0.000000000000e+00   0.000000000000e+00   0.000000000000e+00   0.000000000000e+00   0.000000000000e+00   0.000000000000e+00 
  0.000000000000e+00   0.000000000000e+00   0.000000000000e+00   0.000000000000e+00   0.000000000000e+00   0.000000000000e+00   0.000000000000e+00   0.000000000000e+00   0.000000000000e+00 
  0.000000000000e+00   0.000000000000e+00   0.000000000000e+00   0.000000000000e+00   0.000000000000e+00   0.000000000000e+00   0.000000000000e+00   0.000000000000e+00   0.000000000000e+00 
  0.000000000000e+00   0.000000000000e+00   0.000000000000e+00   0.000000000000e+00   0.000000000000e+00   0.000000000000e+00   0.000000000000e+00   0.000000000000e+00   0.000000000000e+00 
  0.000000000000e+00   0.000000000000e+00   0.000000000000e+00   0.000000000000e+00   0.000000000000e+00   0.000000000000e+00   0.000000000000e+00   0.000000000000e+00   0.000000000000e+00 
  0.000000000000e+00   0.000000000000e+00   0.000000000000e+00   0.000000000000e+00   0.000000000000e+00   0.000000000000e+00   0.000000000000e+00   0.000000000000e+00   0.000000000000e+00 
  0.000000000000e+00   0.000000000000e+00   0.000000000000e+00   0.000000000000e+00   0.000000000000e+00   0.000000000000e+00   0.000000000000e+00   0.000000000000e+00   0.000000000000e+00 
  0.000000000000e+00   0.000000000000e+00   0.000000000000e+00   0.000000000000e+00   0.000000000000e+00   0.000000000000e+00   0.000000000000e+00   0.000000000000e+00   0.000000000000e+00 
  0.000000000000e+00   0.000000000000e+00   0.000000000000e+00   0.000000000000e+00   0.000000000000e+00   0.000000000000e+00   0.000000000000e+00   0.000000000000e+00   0.000000000000e+00 
  0.000000000000e+00   0.000000000000e+00   0.000000000000e+00   0.000000000000e+00   0.000000000000e+00   0.000000000000e+00   0.000000000000e+00   0.000000000000e+00   0.000000000000e+00 
  0.000000000000e+00   0.000000000000e+00   0.000000000000e+00   0.000000000000e+00   0.000000000000e+00   0.000000000000e+00   0.000000000000e+00   0.000000000000e+00   0.000000000000e+00 
  0.000000000000e+00   0.000000000000e+00   0.000000000000e+00   0.000000000000e+00   0.000000000000e+00   0.000000000000e+00   0.000000000000e+00   0.000000000000e+00   0.000000000000e+00 
  0.000000000000e+00   0.000000000000e+00   0.000000000000e+00   0.000000000000e+00   0.000000000000e+00   0.000000000000e+00   0.000000000000e+00   0.000000000000e+00   0.000000000000e+00 
  0.000000000000e+00   0.000000000000e+00   0.000000000000e+00   0.000000000000e+00   0.000000000000e+00   0.000000000000e+00   0.000000000000e+00   0.000000000000e+00   0.000000000000e+00 
  0.000000000000e+00   0.000000000000e+00   0.000000000000e+00   0.000000000000e+00   0.000000000000e+00   0.000000000000e+00   0.000000000000e+00   0.000000000000e+00   0.000000000000e+00 
  0.000000000000e+00   0.000000000000e+00   0.000000000000e+00   0.000000000000e+00   0.000000000000e+00   0.000000000000e+00   0.000000000000e+00   0.000000000000e+00   0.000000000000e+00 
  0.000000000000e+00   0.000000000000e+00   0.000000000000e+00   0.000000000000e+00   0.000000000000e+00   0.000000000000e+00   0.000000000000e+00   0.000000000000e+00   0.000000000000e+00 
  0.000000000000e+00   0.000000000000e+00   0.000000000000e+00   0.000000000000e+00   0.000000000000e+00   0.000000000000e+00   0.000000000000e+00   0.000000000000e+00   0.000000000000e+00 
  0.000000000000e+00   0.000000000000e+00   0.000000000000e+00   0.000000000000e+00   0.000000000000e+00   0.000000000000e+00   0.000000000000e+00   0.000000000000e+00   0.000000000000e+00 
  0.000000000000e+00   0.000000000000e+00   0.000000000000e+00   0.000000000000e+00   0.000000000000e+00   0.000000000000e+00   0.000000000000e+00   0.000000000000e+00   0.000000000000e+00 
  0.000000000000e+00   0.000000000000e+00   0.000000000000e+00   0.000000000000e+00   0.000000000000e+00   0.000000000000e+00   0.000000000000e+00   0.000000000000e+00   0.000000000000e+00 
  0.000000000000e+00   0.000000000000e+00   0.000000000000e+00   0.000000000000e+00   0.000000000000e+00   0.000000000000e+00   0.000000000000e+00   0.000000000000e+00   0.000000000000e+00 
  0.000000000000e+00   0.000000000000e+00   0.000000000000e+00   0.000000000000e+00   0.000000000000e+00   0.000000000000e+00   0.000000000000e+00   0.000000000000e+00   0.000000000000e+00 
  0.000000000000e+00   0.000000000000e+00   0.000000000000e+00   0.000000000000e+00   0.000000000000e+00   0.000000000000e+00   0.000000000000e+00   0.000000000000e+00   0.000000000000e+00 
  0.000000000000e+00   0.000000000000e+00   0.000000000000e+00   0.000000000000e+00   0.000000000000e+00   0.000000000000e+00   0.000000000000e+00   0.000000000000e+00   0.000000000000e+00 
  0.000000000000e+00   0.000000000000e+00   0.000000000000e+00   0.000000000000e+00   0.000000000000e+00   0.000000000000e+00   0.000000000000e+00   0.000000000000e+00   0.000000000000e+00 
  0.000000000000e+00   0.000000000000e+00   0.000000000000e+00   0.000000000000e+00   0.000000000000e+00   0.000000000000e+00   0.000000000000e+00   2.322774887085e+00   2.173850774765e+00 
  2.297173976898e+00   2.891624689102e+00   3.330485582352e+00   2.050746440887e+00   7.185159206390e+00   2.297751665115e+00   3.004614830017e+00   3.144885540009e+00   2.879608154297e+00 
  2.410337924957e+00   6.205714225769e+00   2.272145748138e+00   2.930234670639e+00   2.872326612473e+00   3.247428655624e+00   3.345401048660e+00   0.000000000000e+00   0.000000000000e+00 
  2.106096982956e+00   2.060044288635e+00   2.280764341354e+00   2.558414936066e+00   2.910340547562e+00   2.694301128387e+00   2.680316209793e+00   3.460031032562e+00   3.831749677658e+00 
  3.764965534210e+00   3.149215221405e+00   2.530003547668e+00   2.052786111832e+00   2.396571159363e+00   2.674846649170e+00   2.826449871063e+00   3.430849552155e+00   3.836438179016e+00 
  0.000000000000e+00   0.000000000000e+00   1.907014608383e+00   1.594322443008e+00   2.211057424545e+00   2.974136829376e+00   3.041259527206e+00   3.429790019989e+00   4.674309730530e+00 
  5.520949840546e+00   5.458958625793e+00   5.221127510071e+00   3.639372348785e+00   2.045638561249e+00   2.030715703964e+00   2.450039148331e+00   2.542405843735e+00   2.693373918533e+00 
  4.472565174103e+00   5.459052085876e+00   0.000000000000e+00   0.000000000000e+00   1.982928156853e+00   7.725865840912e+00   2.354502201080e+00   4.552606105804e+00   4.324162960052e+00 
  5.054476261139e+00   7.713166236877e+00   8.610183715820e+00   8.239934921265e+00   8.185480117798e+00   4.857094287872e+00   6.905950069427e+00   2.316412925720e+00   3.353370666504e+00 
  2.481243610382e+00   4.173925399780e+00   6.169242382050e+00   8.319915771484e+00   0.000000000000e+00   0.000000000000e+00   2.361380338669e+00   2.025549888611e+00   2.725354909897e+00 
  3.755999088287e+00   3.765388965607e+00   4.312446117401e+00   5.798299312592e+00   6.449923515320e+00   6.165313243866e+00   6.006777763367e+00   4.280839443207e+00   2.687218904495e+00 
  2.644158124924e+00   3.069177389145e+00   3.059408664703e+00   3.231191873550e+00   5.072614192963e+00   6.095848083496e+00   0.000000000000e+00   0.000000000000e+00   2.849988222122e+00 
  2.862669706345e+00   3.041723012924e+00   3.243917226791e+00   3.536249160767e+00   3.899391889572e+00   4.414244174957e+00   4.827323436737e+00   4.832363605499e+00   4.532245635986e+00 
  3.919672489166e+00   3.375967264175e+00   3.282325029373e+00   3.313222885132e+00   3.445084095001e+00   3.658977985382e+00   4.224252700806e+00   4.631463050842e+00   0.000000000000e+00 
  0.000000000000e+00   3.401442050934e+00   3.360192537308e+00   3.559562683105e+00   3.698137283325e+00   3.853887557983e+00   4.067259788513e+00   4.176580429077e+00   4.320569992065e+00 
  4.178645610809e+00   4.333030700684e+00   4.165841579437e+00   3.883896350861e+00   3.783251047134e+00   3.794635295868e+00   4.031666278839e+00   4.038057327271e+00   4.229553699493e+00 
  4.425179481506e+00   0.000000000000e+00   0.000000000000e+00   3.684006929398e+00   3.668748140335e+00   3.675122022629e+00   3.726130008698e+00   3.855473995209e+00   3.984191417694e+00 
  4.086945056915e+00   4.144970417023e+00   4.059378623962e+00   4.152602672577e+00   4.151714324951e+00   4.140482425690e+00   4.168414115906e+00   4.145559787750e+00   4.214578151703e+00 
  4.273697853088e+00   4.407094478607e+00   4.509150505066e+00   0.000000000000e+00   0.000000000000e+00   3.913348913193e+00   3.905746221542e+00   3.868423461914e+00   3.871576786041e+00 
  3.943953514099e+00   4.002234935760e+00   4.023314476013e+00   3.968525171280e+00   3.853524446487e+00   4.166278362274e+00   4.407234191895e+00   4.489344120026e+00   4.519228458405e+00 
  4.538350105286e+00   4.566917896271e+00   4.618461608887e+00   4.645646095276e+00   4.684699058533e+00   0.000000000000e+00   0.000000000000e+00   4.134268283844e+00   4.057862758636e+00 
  4.018338203430e+00   4.022757530212e+00   4.124597549438e+00   4.178182125092e+00   4.326449394226e+00   4.068880558014e+00   3.818692207336e+00   4.640393257141e+00   5.100128173828e+00 
  5.209835529327e+00   5.162133693695e+00   5.122730731964e+00   5.131572246552e+00   5.164865016937e+00   5.191785335541e+00   5.222429752350e+00   0.000000000000e+00   0.000000000000e+00 
  4.165459156036e+00   4.037938117981e+00   3.893932342529e+00   3.897493124008e+00   4.037144184113e+00   4.319481849670e+00   4.662032604218e+00   4.874674320221e+00   5.356840610504e+00 
  6.475036621094e+00   6.479347229004e+00   6.065051555634e+00   5.614076137543e+00   5.385768413544e+00   5.401171684265e+00   5.452149868011e+00   5.474371910095e+00   5.412533283234e+00 
  0.000000000000e+00   0.000000000000e+00   4.230270862579e+00   4.021294116974e+00   3.706335783005e+00   3.742071151733e+00   3.886875391006e+00   4.581494331360e+00   5.287173748016e+00 
  5.817605018616e+00   6.848968982697e+00   9.151523590088e+00   9.020390510559e+00   8.053675651550e+00   6.685116767883e+00   5.700835704803e+00   5.654123783112e+00   5.933787345886e+00 
  6.098894596100e+00   6.061521053314e+00   0.000000000000e+00   0.000000000000e+00   4.382195472717e+00   3.996088981628e+00   3.285570621490e+00   3.584222316742e+00   3.603466749191e+00 
  4.917991161346e+00   6.025948047638e+00   6.262198448181e+00   5.884490489960e+00   7.407647609711e+00   7.334968566895e+00   6.908659934998e+00   6.317625522614e+00   6.023205280304e+00 
  6.076486587524e+00   6.161365509033e+00   6.157320022583e+00   6.133637428284e+00   0.000000000000e+00   0.000000000000e+00   4.677347660065e+00   4.441348075867e+00   4.125520706177e+00 
  4.218121051788e+00   4.421992778778e+00   5.174954891205e+00   5.866681575775e+00   6.110771179199e+00   6.029878616333e+00   6.440983772278e+00   6.501190662384e+00   6.400601387024e+00 
  6.314399719238e+00   6.322113990784e+00   6.348229408264e+00   6.336004257202e+00   6.335686683655e+00   6.289061069489e+00   0.000000000000e+00   0.000000000000e+00   5.070037364960e+00 
  4.941235065460e+00   4.847347736359e+00   4.906610012054e+00   5.088621139526e+00   5.472275733948e+00   5.836800098419e+00   6.017046928406e+00   6.086735725403e+00   6.293017387390e+00 
  6.437142372131e+00   6.502182960510e+00   6.524959564209e+00   6.535927772522e+00   6.563078403473e+00   6.582557201385e+00   6.656788825989e+00   6.520787239075e+00   0.000000000000e+00 
  0.000000000000e+00   5.339879512787e+00   5.291478633881e+00   5.299149513245e+00   5.364316940308e+00   5.502337932587e+00   5.710359096527e+00   5.921558380127e+00   6.086060523987e+00 
  6.198949337006e+00   6.349468231201e+00   6.478262901306e+00   6.565482139587e+00   6.625079154968e+00   6.663547039032e+00   6.693310737610e+00   6.710978507996e+00   6.759716510773e+00 
  6.698276996613e+00   0.000000000000e+00   0.000000000000e+00   5.626977920532e+00   5.567362308502e+00   5.578523635864e+00   5.633341312408e+00   5.732409000397e+00   5.873036861420e+00 
  6.025666713715e+00   6.158507347107e+00   6.285655975342e+00   6.414845466614e+00   6.519864082336e+00   6.611381530762e+00   6.679036140442e+00   6.739051818848e+00   6.779948234558e+00 
  6.805090904236e+00   6.805417537689e+00   6.803199291229e+00   0.000000000000e+00   0.000000000000e+00   5.653832435608e+00   5.658753871918e+00   5.694323539734e+00   5.775197029114e+00 
  5.862388134003e+00   5.971460342407e+00   6.082766056061e+00   6.203983783722e+00   6.317447185516e+00   6.433198928833e+00   6.544082164764e+00   6.641830444336e+00   6.736323833466e+00 
  6.795154571533e+00   6.833131313324e+00   6.850122451782e+00   6.859357833862e+00   6.865061759949e+00   0.000000000000e+00   0.000000000000e+00   0.000000000000e+00   0.000000000000e+00 
  0.000000000000e+00   0.000000000000e+00   0.000000000000e+00   0.000000000000e+00   0.000000000000e+00   0.000000000000e+00   0.000000000000e+00   0.000000000000e+00   0.000000000000e+00 
  0.000000000000e+00   0.000000000000e+00   0.000000000000e+00   0.000000000000e+00   0.000000000000e+00   0.000000000000e+00   0.000000000000e+00   0.000000000000e+00   0.000000000000e+00 
  0.000000000000e+00   0.000000000000e+00   0.000000000000e+00   0.000000000000e+00   0.000000000000e+00   0.000000000000e+00   0.000000000000e+00   0.000000000000e+00   0.000000000000e+00 
  0.000000000000e+00   0.000000000000e+00   0.000000000000e+00   0.000000000000e+00   0.000000000000e+00   0.000000000000e+00   0.000000000000e+00   0.000000000000e+00   0.000000000000e+00 
  0.000000000000e+00   0.000000000000e+00   1.217656016350e+00   1.129295706749e+00   1.221662521362e+00   1.321449995041e+00   1.465127348900e+00   1.043175458908e+00   7.934281229973e-01 
  1.466014266014e+00   1.844643831253e+00   1.940596818924e+00   1.739221811295e+00   1.466981887817e+00   9.817289113998e-01   1.304074883461e+00   1.590112090111e+00   1.700331687927e+00 
  1.926450133324e+00   2.028798103333e+00   0.000000000000e+00   0.000000000000e+00   1.178281545639e+00   1.135532498360e+00   1.454641461372e+00   1.378092646599e+00   1.569941282272e+00 
  1.530872106552e+00   1.764824867249e+00   2.182127475739e+00   2.345331907272e+00   2.271468877792e+00   1.878733754158e+00   1.491324663162e+00   1.272544741631e+00   1.329011440277e+00 
  1.524758458138e+00   1.750389337540e+00   2.103555202484e+00   2.327971458435e+00   0.000000000000e+00   0.000000000000e+00   1.095245361328e+00   1.015725612640e+00   1.303593993187e+00 
  1.540682435036e+00   1.663358807564e+00   1.976018905640e+00   2.727746963501e+00   3.333582162857e+00   3.385365962982e+00   3.136155128479e+00   2.265005826950e+00   1.433540821075e+00 
  1.240438699722e+00   1.379999041557e+00   1.614804387093e+00   1.989939212799e+00   2.814705133438e+00   3.311614751816e+00   0.000000000000e+00   0.000000000000e+00   1.072611331940e+00 
  7.496306300163e-01   1.302695393562e+00   2.042918920517e+00   2.062989473343e+00   2.570555686951e+00   3.924258708954e+00   4.635965347290e+00   4.556325912476e+00   4.329957962036e+00 
  2.764694452286e+00   1.270643949509e+00   1.239392638206e+00   1.608335256577e+00   1.692855954170e+00   1.960571646690e+00   3.648410081863e+00   4.524249076843e+00   0.000000000000e+00 
  0.000000000000e+00   1.658401131630e+00   1.643694400787e+00   1.907370805740e+00   2.253189086914e+00   2.417551755905e+00   2.833240032196e+00   3.549211740494e+00   3.938845634460e+00 
  3.868607997894e+00   3.621665477753e+00   2.768148660660e+00   2.030067920685e+00   1.858921408653e+00   1.993220448494e+00   2.187914848328e+00   2.421782255173e+00   3.156049489975e+00 
  3.647724628448e+00   0.000000000000e+00   0.000000000000e+00   2.035336494446e+00   2.073884487152e+00   2.198022127151e+00   2.389680147171e+00   2.574213504791e+00   2.831756591797e+00 
  3.205744981766e+00   3.467481136322e+00   3.461120128632e+00   3.268246650696e+00   2.863345861435e+00   2.500161170959e+00   2.381429672241e+00   2.399606227875e+00   2.523537874222e+00 
  2.742832660675e+00   3.113778114319e+00   3.374604463577e+00   0.000000000000e+00   0.000000000000e+00   2.363800764084e+00   2.347980976105e+00   2.353798389435e+00   2.416734933853e+00 
  2.554732084274e+00   2.731976747513e+00   2.875902175903e+00   2.974223375320e+00   2.911227226257e+00   2.811191320419e+00   2.666715621948e+00   2.578432321548e+00   2.570911169052e+00 
  2.560858726501e+00   2.612065792084e+00   2.696146965027e+00   2.869881391525e+00   3.002956867218e+00   0.000000000000e+00   0.000000000000e+00   2.757976770401e+00   2.721308946609e+00 
  2.673463821411e+00   2.804014921188e+00   2.896890640259e+00   2.892783641815e+00   2.978480100632e+00   2.959712266922e+00   2.859167814255e+00   2.979112625122e+00   3.017202138901e+00 
  3.017792940140e+00   3.085750579834e+00   3.086860179901e+00   3.111370563507e+00   3.183097839355e+00   3.254542827606e+00   3.332520008087e+00   0.000000000000e+00   0.000000000000e+00 
  3.031496524811e+00   2.990153074265e+00   2.957066059113e+00   3.022513151169e+00   3.061437129974e+00   3.077175140381e+00   3.044339418411e+00   2.869281768799e+00   2.443377494812e+00 
  3.062464714050e+00   3.361289739609e+00   3.458757162094e+00   3.530787706375e+00   3.576757192612e+00   3.629250288010e+00   3.687693834305e+00   3.702955245972e+00   3.736772060394e+00 
  0.000000000000e+00   0.000000000000e+00   3.201031684875e+00   3.115900278091e+00   3.003629922867e+00   2.937438964844e+00   2.979357957840e+00   3.090657472610e+00   3.072132349014e+00 
  2.565469741821e+00   3.122730970383e+00   2.917208909988e+00   3.658645868301e+00   3.836994409561e+00   3.868873834610e+00   3.903716564178e+00   3.940999031067e+00   3.962335586548e+00 
  3.964444637299e+00   3.974273204803e+00   0.000000000000e+00   0.000000000000e+00   3.344310998917e+00   3.178979635239e+00   2.969644069672e+00   2.972687005997e+00   3.056177139282e+00 
  3.367751598358e+00   3.619281768799e+00   3.613867044449e+00   3.398559331894e+00   4.404716491699e+00   4.607545375824e+00   4.460021972656e+00   4.321774005890e+00   4.351724147797e+00 
  4.427256584167e+00   4.435795783997e+00   4.398634910583e+00   4.357558250427e+00   0.000000000000e+00   0.000000000000e+00   3.418624639511e+00   3.090296506882e+00   2.455733537674e+00 
  2.670188665390e+00   2.604539632797e+00   3.644789457321e+00   4.487211227417e+00   4.634814739227e+00   4.243521690369e+00   5.657259941101e+00   5.709338665009e+00   5.311227798462e+00 
  4.800922393799e+00   4.601804256439e+00   4.695980072021e+00   4.770909786224e+00   4.744344234467e+00   4.706368923187e+00   0.000000000000e+00   0.000000000000e+00   3.472113370895e+00 
  2.777789831161e+00   4.103068351746e+00   1.915721535683e+00   3.528263330460e+00   3.743717908859e+00   5.424287319183e+00   5.048869609833e+00   4.360634803772e+00   4.674777507782e+00 
  5.275701999664e+00   5.355187892914e+00   5.103352069855e+00   5.088612079620e+00   5.161314964294e+00   5.177179336548e+00   5.145232677460e+00   5.149649620056e+00   0.000000000000e+00 
  0.000000000000e+00   3.858590602875e+00   3.520938396454e+00   2.920498609543e+00   3.139449596405e+00   3.108669042587e+00   4.171816349030e+00   5.003488540649e+00   5.072417736053e+00 
  4.310119152069e+00   5.039431571960e+00   5.271885395050e+00   5.355835914612e+00   5.317968368530e+00   5.363686561584e+00   5.413900852203e+00   5.422837257385e+00   5.419596672058e+00 
  5.409901142120e+00   0.000000000000e+00   0.000000000000e+00   4.198051929474e+00   4.053454399109e+00   3.926468610764e+00   3.974467515945e+00   4.111693859100e+00   4.506019592285e+00 
  4.871087551117e+00   5.005125999451e+00   4.963080883026e+00   5.191776752472e+00   5.352532863617e+00   5.445864677429e+00   5.499852180481e+00   5.557759284973e+00   5.609826087952e+00 
  5.627106666565e+00   5.665232181549e+00   5.581722736359e+00   0.000000000000e+00   0.000000000000e+00   4.466322898865e+00   4.429883480072e+00   4.405411243439e+00   4.450729846954e+00 
  4.572649955750e+00   4.773447036743e+00   4.967764854431e+00   5.108724594116e+00   5.203759193420e+00   5.347944259644e+00   5.477222442627e+00   5.576382637024e+00   5.653224468231e+00 
  5.705628395081e+00   5.742113113403e+00   5.764343738556e+00   5.806193828583e+00   5.737751960754e+00   0.000000000000e+00   0.000000000000e+00   4.691960334778e+00   4.681491851807e+00 
  4.690243244171e+00   4.735052108765e+00   4.828993320465e+00   4.960944652557e+00   5.081163406372e+00   5.193596363068e+00   5.308163166046e+00   5.435728549957e+00   5.557118415833e+00 
  5.637479782104e+00   5.706471443176e+00   5.766992092133e+00   5.831252574921e+00   5.858598709106e+00   5.862586498260e+00   5.869410037994e+00   0.000000000000e+00   0.000000000000e+00 
  4.766464710236e+00   4.772560596466e+00   4.812798500061e+00   4.870038986206e+00   4.929323196411e+00   5.017930984497e+00   5.149644374847e+00   5.271583080292e+00   5.384862899780e+00 
  5.492664337158e+00   5.594510555267e+00   5.707619667053e+00   5.807408809662e+00   5.877114772797e+00   5.893799781799e+00   5.908951282501e+00   5.909616947174e+00   5.932603836060e+00 
  0.000000000000e+00   0.000000000000e+00   0.000000000000e+00   0.000000000000e+00   0.000000000000e+00   0.000000000000e+00   0.000000000000e+00   0.000000000000e+00   0.000000000000e+00 
  0.000000000000e+00   0.000000000000e+00   0.000000000000e+00   0.000000000000e+00   0.000000000000e+00   0.000000000000e+00   0.000000000000e+00   0.000000000000e+00   0.000000000000e+00 
  0.000000000000e+00   0.000000000000e+00   0.000000000000e+00   0.000000000000e+00   0.000000000000e+00   0.000000000000e+00   0.000000000000e+00   0.000000000000e+00   0.000000000000e+00 
  0.000000000000e+00   0.000000000000e+00   0.000000000000e+00   0.000000000000e+00   0.000000000000e+00   0.000000000000e+00   0.000000000000e+00   0.000000000000e+00   0.000000000000e+00 
  0.000000000000e+00   0.000000000000e+00   0.000000000000e+00   0.000000000000e+00   0.000000000000e+00   0.000000000000e+00   4.600413441658e-01   3.612421751022e-01   6.117632389069e-01 
  4.539208412170e-01   5.333143472672e-01   3.081533312798e-01   2.967782020569e-01   4.951100945473e-01   5.804370045662e-01   6.285533308983e-01   5.551418066025e-01   4.833025336266e-01 
  3.783528506756e-01   3.785297870636e-01   4.747270047665e-01   5.609536767006e-01   6.487365365028e-01   6.314348578453e-01   0.000000000000e+00   0.000000000000e+00   4.917595386505e-01 
  4.144972801208e+00   1.060040473938e+00   5.336895465851e+00   7.430154681206e-01   4.667258262634e+00   3.552902221680e+00   1.606015920639e+00   8.402283191681e-01   1.368970155716e+00 
  6.265642642975e-01   2.323404788971e+00   1.151393651962e+00   8.120930194855e-01   2.540290832520e+00   2.052054882050e+00   1.667558908463e+00   5.066243410110e-01   0.000000000000e+00 
  0.000000000000e+00   6.502791643143e-01   5.881711840630e-01   8.399863839149e-01   7.444311380386e-01   8.656326532364e-01   8.832560777664e-01   1.155226230621e+00   1.334035754204e+00 
  1.346003174782e+00   1.251910328865e+00   9.467272758484e-01   6.365711092949e-01   5.571562051773e-01   5.374547243118e-01   6.607748270035e-01   8.488262295723e-01   1.156202673912e+00 
  1.327414512634e+00   0.000000000000e+00   0.000000000000e+00   5.226524472237e-01   4.675039350986e-01   6.128198504448e-01   7.728874087334e-01   9.158417582512e-01   1.143258452415e+00 
  1.542971372604e+00   1.835950255394e+00   1.856951713562e+00   1.707590699196e+00   1.237804293633e+00   7.918823361397e-01   6.856565475464e-01   7.366182208061e-01   8.333467245102e-01 
  1.020883083344e+00   1.458650708199e+00   1.724206805229e+00   0.000000000000e+00   0.000000000000e+00   8.360422849655e-01   8.404073715210e-01   9.053213000298e-01   9.889893531799e-01 
  1.122612714767e+00   1.328839898109e+00   1.586832523346e+00   1.815186381340e+00   1.839863061905e+00   1.692547798157e+00   1.375443339348e+00   1.085325002670e+00   9.953978061676e-01 
  1.003383755684e+00   1.080259442329e+00   1.215133666992e+00   1.487600088120e+00   1.681841135025e+00   0.000000000000e+00   0.000000000000e+00   1.210833311081e+00   1.194580912590e+00 
  1.189838051796e+00   1.260463714600e+00   1.400478959084e+00   1.554931163788e+00   1.691315174103e+00   1.809323787689e+00   1.762830257416e+00   1.594672083855e+00   1.410517811775e+00 
  1.258523821831e+00   1.202132701874e+00   1.204454660416e+00   1.250230431557e+00   1.348569393158e+00   1.500878572464e+00   1.610847711563e+00   0.000000000000e+00   0.000000000000e+00 