# vtk DataFile Version 2.0
Written using VisIt writer
ASCII
DATASET RECTILINEAR_GRID
DIMENSIONS 20 20 20
X_COORDINATES 20 float
  0.000000000000e+00   1.000000000000e+00   2.000000000000e+00   3.000000000000e+00   4.000000000000e+00   5.000000000000e+00   6.000000000000e+00   7.000000000000e+00   8.000000000000e+00 
  9.000000000000e+00   1.000000000000e+01   1.100000000000e+01   1.200000000000e+01   1.300000000000e+01   1.400000000000e+01   1.500000000000e+01   1.600000000000e+01   1.700000000000e+01 
  1.800000000000e+01   1.900000000000e+01 
Y_COORDINATES 20 float
  0.000000000000e+00   1.000000000000e+00   2.000000000000e+00   3.000000000000e+00   4.000000000000e+00   5.000000000000e+00   6.000000000000e+00   7.000000000000e+00   8.000000000000e+00 
  9.000000000000e+00   1.000000000000e+01   1.100000000000e+01   1.200000000000e+01   1.300000000000e+01   1.400000000000e+01   1.500000000000e+01   1.600000000000e+01   1.700000000000e+01 
  1.800000000000e+01   1.900000000000e+01 
Z_COORDINATES 20 float
  0.000000000000e+00   1.000000000000e+00   2.000000000000e+00   3.000000000000e+00   4.000000000000e+00   5.000000000000e+00   6.000000000000e+00   7.000000000000e+00   8.000000000000e+00 
  9.000000000000e+00   1.000000000000e+01   1.100000000000e+01   1.200000000000e+01   1.300000000000e+01   1.400000000000e+01   1.500000000000e+01   1.600000000000e+01   1.700000000000e+01 
  1.800000000000e+01   1.900000000000e+01 
CELL_DATA 6859
POINT_DATA 8000
SCALARS pressure float
LOOKUP_TABLE default
  0.000000000000e+00   0.000000000000e+00   0.000000000000e+00   0.000000000000e+00   0.000000000000e+00   0.000000000000e+00   0.000000000000e+00   0.000000000000e+00   0.000000000000e+00 
  0.000000000000e+00   0.000000000000e+00   0.000000000000e+00   0.000000000000e+00   0.000000000000e+00   0.000000000000e+00   0.000000000000e+00   0.000000000000e+00   0.000000000000e+00 
  0.000000000000e+00   0.000000000000e+00   0.000000000000e+00   0.000000000000e+00   0.000000000000e+00   0.000000000000e+00   0.000000000000e+00   0.000000000000e+00   0.000000000000e+00 
  0.000000000000e+00   0.000000000000e+00   0.000000000000e+00   0.000000000000e+00   0.000000000000e+00   0.000000000000e+00   0.000000000000e+00   0.000000000000e+00   0.000000000000e+00 
  0.000000000000e+00   0.000000000000e+00   0.000000000000e+00   0.000000000000e+00   0.000000000000e+00   0.000000000000e+00   0.000000000000e+00   0.000000000000e+00   0.000000000000e+00 
  0.000000000000e+00   0.000000000000e+00   0.000000000000e+00   0.000000000000e+00   0.000000000000e+00   0.000000000000e+00   0.000000000000e+00   0.000000000000e+00   0.000000000000e+00 
  0.000000000000e+00   0.000000000000e+00   0.000000000000e+00   0.000000000000e+00   0.000000000000e+00   0.000000000000e+00   0.000000000000e+00   0.000000000000e+00   0.000000000000e+00 
  0.000000000000e+00   0.000000000000e+00   0.000000000000e+00   0.000000000000e+00   0.000000000000e+00   0.000000000000e+00   0.000000000000e+00   0.000000000000e+00   0.000000000000e+00 
  0.000000000000e+00   0.000000000000e+00   0.000000000000e+00   0.000000000000e+00   0.000000000000e+00   0.000000000000e+00   0.000000000000e+00   0.000000000000e+00   0.000000000000e+00 
  0.000000000000e+00   0.000000000000e+00   0.000000000000e+00   0.000000000000e+00   0.000000000000e+00   0.000000000000e+00   0.000000000000e+00   0.000000000000e+00   0.000000000000e+00 
  0.000000000000e+00   0.000000000000e+00   0.000000000000e+00   0.000000000000e+00   0.000000000000e+00   0.000000000000e+00   0.000000000000e+00   0.000000000000e+00   0.000000000000e+00 
  0.000000000000e+00   0.000000000000e+00   0.000000000000e+00   0.000000000000e+00   0.000000000000e+00   0.000000000000e+00   0.000000000000e+00   0.000000000000e+00   0.000000000000e+00 
  0.000000000000e+00   0.000000000000e+00   0.000000000000e+00   0.000000000000e+00   0.000000000000e+00   0.000000000000e+00   0.000000000000e+00   0.000000000000e+00   0.000000000000e+00 
  0.000000000000e+00   0.000000000000e+00   0.000000000000e+00   0.000000000000e+00   0.000000000000e+00   0.000000000000e+00   0.000000000000e+00   0.000000000000e+00   0.000000000000e+00 
  0.000000000000e+00   0.000000000000e+00   0.000000000000e+00   0.000000000000e+00   0.000000000000e+00   0.000000000000e+00   0.000000000000e+00   0.000000000000e+00   0.000000000000e+00 
  0.000000000000e+00   0.000000000000e+00   0.000000000000e+00   0.000000000000e+00   0.000000000000e+00   0.000000000000e+00   0.000000000000e+00   0.000000000000e+00   0.000000000000e+00 
  0.000000000000e+00   0.000000000000e+00   0.000000000000e+00   0.000000000000e+00   0.000000000000e+00   0.000000000000e+00   0.000000000000e+00   0.000000000000e+00   0.000000000000e+00 
  0.000000000000e+00   0.000000000000e+00   0.000000000000e+00   0.000000000000e+00   0.000000000000e+00   0.000000000000e+00   0.000000000000e+00   0.000000000000e+00   0.000000000000e+00 
  0.000000000000e+00   0.000000000000e+00   0.000000000000e+00   0.000000000000e+00   0.000000000000e+00   0.000000000000e+00   0.000000000000e+00   0.000000000000e+00   0.000000000000e+00 
  0.000000000000e+00   0.000000000000e+00   0.000000000000e+00   0.000000000000e+00   0.000000000000e+00   0.000000000000e+00   0.000000000000e+00   0.000000000000e+00   0.000000000000e+00 
  0.000000000000e+00   0.000000000000e+00   0.000000000000e+00   0.000000000000e+00   0.000000000000e+00   0.000000000000e+00   0.000000000000e+00   0.000000000000e+00   0.000000000000e+00 
  0.000000000000e+00   0.000000000000e+00   0.000000000000e+00   0.000000000000e+00   0.000000000000e+00   0.000000000000e+00   0.000000000000e+00   0.000000000000e+00   0.000000000000e+00 
  0.000000000000e+00   0.000000000000e+00   0.000000000000e+00   0.000000000000e+00   0.000000000000e+00   0.000000000000e+00   0.000000000000e+00   0.000000000000e+00   0.000000000000e+00 
  0.000000000000e+00   0.000000000000e+00   0.000000000000e+00   0.000000000000e+00   0.000000000000e+00   0.000000000000e+00   0.000000000000e+00   0.000000000000e+00   0.000000000000e+00 
  0.000000000000e+00   0.000000000000e+00   0.000000000000e+00   0.000000000000e+00   0.000000000000e+00   0.000000000000e+00   0.000000000000e+00   0.000000000000e+00   0.000000000000e+00 
  0.000000000000e+00   0.000000000000e+00   0.000000000000e+00   0.000000000000e+00   0.000000000000e+00   0.000000000000e+00   0.000000000000e+00   0.000000000000e+00   0.000000000000e+00 
  0.000000000000e+00   0.000000000000e+00   0.000000000000e+00   0.000000000000e+00   0.000000000000e+00   0.000000000000e+00   0.000000000000e+00   0.000000000000e+00   0.000000000000e+00 
  0.000000000000e+00   0.000000000000e+00   0.000000000000e+00   0.000000000000e+00   0.000000000000e+00   0.000000000000e+00   0.000000000000e+00   0.000000000000e+00   0.000000000000e+00 
  0.000000000000e+00   0.000000000000e+00   0.000000000000e+00   0.000000000000e+00   0.000000000000e+00   0.000000000000e+00   0.000000000000e+00   0.000000000000e+00   0.000000000000e+00 
  0.000000000000e+00   0.000000000000e+00   0.000000000000e+00   0.000000000000e+00   0.000000000000e+00   0.000000000000e+00   0.000000000000e+00   0.000000000000e+00   0.000000000000e+00 
  0.000000000000e+00   0.000000000000e+00   0.000000000000e+00   0.000000000000e+00   0.000000000000e+00   0.000000000000e+00   0.000000000000e+00   0.000000000000e+00   0.000000000000e+00 
  0.000000000000e+00   0.000000000000e+00   0.000000000000e+00   0.000000000000e+00   0.000000000000e+00   0.000000000000e+00   0.000000000000e+00   0.000000000000e+00   0.000000000000e+00 
  0.000000000000e+00   0.000000000000e+00   0.000000000000e+00   0.000000000000e+00   0.000000000000e+00   0.000000000000e+00   0.000000000000e+00   0.000000000000e+00   0.000000000000e+00 
  0.000000000000e+00   0.000000000000e+00   0.000000000000e+00   0.000000000000e+00   0.000000000000e+00   0.000000000000e+00   0.000000000000e+00   0.000000000000e+00   0.000000000000e+00 
  0.000000000000e+00   0.000000000000e+00   0.000000000000e+00   0.000000000000e+00   0.000000000000e+00   0.000000000000e+00   0.000000000000e+00   0.000000000000e+00   0.000000000000e+00 
  0.000000000000e+00   0.000000000000e+00   0.000000000000e+00   0.000000000000e+00   0.000000000000e+00   0.000000000000e+00   0.000000000000e+00   0.000000000000e+00   0.000000000000e+00 
  0.000000000000e+00   0.000000000000e+00   0.000000000000e+00   0.000000000000e+00   0.000000000000e+00   0.000000000000e+00   0.000000000000e+00   0.000000000000e+00   0.000000000000e+00 
  0.000000000000e+00   0.000000000000e+00   0.000000000000e+00   0.000000000000e+00   0.000000000000e+00   0.000000000000e+00   0.000000000000e+00   0.000000000000e+00   0.000000000000e+00 
  0.000000000000e+00   0.000000000000e+00   0.000000000000e+00   0.000000000000e+00   0.000000000000e+00   0.000000000000e+00   0.000000000000e+00   0.000000000000e+00   0.000000000000e+00 
  0.000000000000e+00   0.000000000000e+00   0.000000000000e+00   0.000000000000e+00   0.000000000000e+00   0.000000000000e+00   0.000000000000e+00   0.000000000000e+00   0.000000000000e+00 
  0.000000000000e+00   0.000000000000e+00   0.000000000000e+00   0.000000000000e+00   0.000000000000e+00   0.000000000000e+00   0.000000000000e+00   0.000000000000e+00   0.000000000000e+00 
  0.000000000000e+00   0.000000000000e+00   0.000000000000e+00   0.000000000000e+00   0.000000000000e+00   0.000000000000e+00   0.000000000000e+00   0.000000000000e+00   0.000000000000e+00 
  0.000000000000e+00   0.000000000000e+00   0.000000000000e+00   0.000000000000e+00   0.000000000000e+00   0.000000000000e+00   0.000000000000e+00   0.000000000000e+00   0.000000000000e+00 
  0.000000000000e+00   0.000000000000e+00   0.000000000000e+00   0.000000000000e+00   0.000000000000e+00   0.000000000000e+00   0.000000000000e+00   0.000000000000e+00   0.000000000000e+00 
  0.000000000000e+00   0.000000000000e+00   0.000000000000e+00   0.000000000000e+00   0.000000000000e+00   0.000000000000e+00   0.000000000000e+00   0.000000000000e+00   0.000000000000e+00 
  0.000000000000e+00   0.000000000000e+00   0.000000000000e+00   0.000000000000e+00   0.000000000000e+00   0.000000000000e+00   0.000000000000e+00   0.000000000000e+00   0.000000000000e+00 
  0.000000000000e+00   0.000000000000e+00   0.000000000000e+00   0.000000000000e+00   0.000000000000e+00   0.000000000000e+00   0.000000000000e+00   3.194302558899e+00   2.038336753845e+00 
  3.085929393768e+00   4.020726680756e+00   4.291472434998e+00   3.972019672394e+00   4.179434299469e+00   4.589515686035e+00   3.741961717606e+00   2.848899841309e+00   2.211833238602e+00 
  2.395245075226e+00   1.204819202423e+00   4.661102294922e+00   1.493659973145e+00   2.383814096451e+00   3.297632932663e+00   2.507065057755e+00   0.000000000000e+00   0.000000000000e+00 
  2.026749372482e+00   2.747963428497e+00   3.214130878448e+00   3.508080720901e+00   3.578672170639e+00   3.436495780945e+00   3.456057071686e+00   3.612591266632e+00   2.943782806396e+00 
  2.374110698700e+00   2.039410114288e+00   1.675034761429e+00   1.540586709976e+00   1.449780225754e+00   2.074270248413e+00   2.463431596756e+00   2.732454299927e+00   2.220062255859e+00 
  0.000000000000e+00   0.000000000000e+00   2.328748464584e+00   3.338471412659e+00   3.540069341660e+00   2.880681514740e+00   2.825853109360e+00   2.660212278366e+00   2.602404356003e+00 
  3.085608005524e+00   2.462775468826e+00   2.198983192444e+00   2.047676563263e+00   1.956849455833e+00   1.991607666016e+00   2.066692590714e+00   2.912529706955e+00   3.133505821228e+00 
  2.866005897522e+00   1.975600004196e+00   0.000000000000e+00   0.000000000000e+00   2.674461603165e+00   3.807349205017e+00   3.920959711075e+00   2.114066600800e+00   2.527887821198e+00 
  2.145533800125e+00   2.839116811752e+00   2.831690073013e+00   2.143519639969e+00   2.199049949646e+00   2.021220922470e+00   1.556914925575e+00   3.240501403809e+00   2.668910264969e+00 
  3.868634939194e+00   4.168144226074e+00   3.348078727722e+00   7.051414966583e+00   0.000000000000e+00   0.000000000000e+00   5.996552467346e+00   6.942591190338e+00   7.010696411133e+00 
  6.135671615601e+00   6.004344940186e+00   5.713887691498e+00   5.379677772522e+00   5.324112892151e+00   4.749503612518e+00   4.768387794495e+00   4.688545703888e+00   4.570514678955e+00 
  4.638630390167e+00   4.885572433472e+00   6.093316555023e+00   6.455425262451e+00   6.169517993927e+00   5.305034637451e+00   0.000000000000e+00   0.000000000000e+00   7.074566364288e+00 
  7.228954315186e+00   7.295109272003e+00   6.998580455780e+00   6.831330776215e+00   6.755228996277e+00   6.563206195831e+00   6.483645915985e+00   6.880987167358e+00   8.118744850159e+00 
  8.216283798218e+00   6.982636928558e+00   6.306305408478e+00   7.172634601593e+00   9.012647628784e+00   9.588953018188e+00   9.511433601379e+00   9.233583450317e+00   0.000000000000e+00 
  0.000000000000e+00   6.303505897522e+00   6.278162956238e+00   6.905121803284e+00   6.916251182556e+00   6.753715991974e+00   6.665518760681e+00   6.301398754120e+00   6.814052104950e+00 
  8.869572639465e+00   1.297720050812e+01   1.333443641663e+01   1.030044555664e+01   8.380955696106e+00   9.734435081482e+00   1.324736595154e+01   1.421480655670e+01   1.401465320587e+01 
  1.381629467010e+01   0.000000000000e+00   0.000000000000e+00   6.072758197784e+00   5.932831287384e+00   6.084393024445e+00   6.317482948303e+00   6.365128040314e+00   6.144731521606e+00 
  6.148352622986e+00   6.597511768341e+00   7.756994724274e+00   9.824133872986e+00   1.006617736816e+01   8.403950691223e+00   7.524096012115e+00   8.247452735901e+00   1.007339096069e+01 
  1.063937187195e+01   1.058796882629e+01   1.055170249939e+01   0.000000000000e+00   0.000000000000e+00   5.788582801819e+00   5.758492946625e+00   5.746157169342e+00   5.820380210876e+00 
  5.845120906830e+00   5.630251884460e+00   5.842874050140e+00   6.053381443024e+00   6.524433135986e+00   6.928829669952e+00   6.943536281586e+00   6.559594631195e+00   6.401932239532e+00 
  6.636838436127e+00   7.028201103210e+00   7.269990444183e+00   7.305659294128e+00   7.333779335022e+00   0.000000000000e+00   0.000000000000e+00   5.755753517151e+00   5.563081264496e+00 
  5.546685218811e+00   5.633393764496e+00   5.716878890991e+00   5.523409366608e+00   6.077024459839e+00   5.599636554718e+00   6.021115303040e+00   5.965940952301e+00   5.882469177246e+00 
  5.602842807770e+00   5.324543476105e+00   5.475076198578e+00   5.683710098267e+00   5.695353031158e+00   5.479293823242e+00   5.350482463837e+00   0.000000000000e+00   0.000000000000e+00 
  5.643751621246e+00   5.584498882294e+00   5.550435066223e+00   5.513425827026e+00   5.511052131653e+00   5.357066154480e+00   5.576122760773e+00   5.375913619995e+00   5.567770481110e+00 
  5.423252105713e+00   5.173082351685e+00   4.595177173615e+00   3.746445655823e+00   4.345009803772e+00   4.605178356171e+00   4.330560207367e+00   3.500864744186e+00   3.210820436478e+00 
  0.000000000000e+00   0.000000000000e+00   5.643123149872e+00   5.660238265991e+00   5.643687248230e+00   5.560557842255e+00   5.529541492462e+00   5.546563148499e+00   5.517813682556e+00 
  5.480036735535e+00   5.371656417847e+00   5.201886653900e+00   4.756113052368e+00   3.603280782700e+00   5.678740024567e+00   3.285584688187e+00   3.911154985428e+00   3.185739278793e+00 
  5.464090824127e+00   5.454775810242e+00   0.000000000000e+00   0.000000000000e+00   5.848683357239e+00   5.807584762573e+00   5.751036643982e+00   5.777305603027e+00   5.755188465118e+00 
  5.708071708679e+00   5.657606124878e+00   5.623660087585e+00   5.488607883453e+00   5.298286914825e+00   4.959383010864e+00   4.358794212341e+00   3.516486406326e+00   4.043483257294e+00 
  4.232298851013e+00   3.894162654877e+00   3.004008769989e+00   2.731345891953e+00   0.000000000000e+00   0.000000000000e+00   5.952003955841e+00   5.903791427612e+00   5.867223739624e+00 
  5.841717243195e+00   5.812902927399e+00   5.757384777069e+00   5.693346977234e+00   5.651453018188e+00   5.541625022888e+00   5.407196044922e+00   5.209820270538e+00   4.903846740723e+00 
  4.644034862518e+00   4.675227165222e+00   4.675377845764e+00   4.497727394104e+00   4.229051113129e+00   4.048574447632e+00   0.000000000000e+00   0.000000000000e+00   6.082839488983e+00 
  6.028280258179e+00   6.012331962585e+00   5.982013225555e+00   5.948735237122e+00   5.912767887115e+00   5.865501880646e+00   5.795645236969e+00   5.733171939850e+00   5.628026962280e+00 
  5.493411064148e+00   5.350316524506e+00   5.224567890167e+00   5.191340923309e+00   5.165145397186e+00   5.071794986725e+00   5.016848087311e+00   4.803320884705e+00   0.000000000000e+00 
  0.000000000000e+00   6.155215740204e+00   6.121694564819e+00   6.141355037689e+00   6.140740871429e+00   6.120088100433e+00   6.075277805328e+00   6.023263931274e+00   5.971675872803e+00 
  5.896697044373e+00   5.820671558380e+00   5.740096092224e+00   5.653424739838e+00   5.585657119751e+00   5.541582584381e+00   5.502984523773e+00   5.448311805725e+00   5.435537815094e+00 
  5.326567173004e+00   0.000000000000e+00   0.000000000000e+00   6.251431465149e+00   6.230087757111e+00   6.233607769012e+00   6.216411590576e+00   6.188739776611e+00   6.149040222168e+00 
  6.096303939819e+00   6.042879581451e+00   5.986705303192e+00   5.937804222107e+00   5.875385284424e+00   5.818187236786e+00   5.776545047760e+00   5.737583160400e+00   5.732999801636e+00 
  5.699666023254e+00   5.647023677826e+00   5.621120452881e+00   0.000000000000e+00   0.000000000000e+00   6.313355445862e+00   6.263505935669e+00   6.265514850616e+00   6.285289764404e+00 
  6.263406276703e+00   6.229793071747e+00   6.185330867767e+00   6.135020256042e+00   6.085021018982e+00   6.026666164398e+00   5.965948104858e+00   5.924973487854e+00   5.898145675659e+00 
  5.880659580231e+00   5.826489925385e+00   5.793181419373e+00   5.765707492828e+00   5.764409542084e+00   0.000000000000e+00   0.000000000000e+00   0.000000000000e+00   0.000000000000e+00 
  0.000000000000e+00   0.000000000000e+00   0.000000000000e+00   0.000000000000e+00   0.000000000000e+00   0.000000000000e+00   0.000000000000e+00   0.000000000000e+00   0.000000000000e+00 
  0.000000000000e+00   0.000000000000e+00   0.000000000000e+00   0.000000000000e+00   0.000000000000e+00   0.000000000000e+00   0.000000000000e+00   0.000000000000e+00   0.000000000000e+00 
  0.000000000000e+00   0.000000000000e+00   0.000000000000e+00   0.000000000000e+00   0.000000000000e+00   0.000000000000e+00   0.000000000000e+00   0.000000000000e+00   0.000000000000e+00 
  0.000000000000e+00   0.000000000000e+00   0.000000000000e+00   0.000000000000e+00   0.000000000000e+00   0.000000000000e+00   0.000000000000e+00   0.000000000000e+00   0.000000000000e+00 
  0.000000000000e+00   0.000000000000e+00   1.174506545067e+00   1.664290785789e+00   2.179337501526e+00   2.800094127655e+00   3.042366504669e+00   2.874174594879e+00   2.703079700470e+00 
  2.694521903992e+00   2.211462259293e+00   1.697499275208e+00   1.364808917046e+00   8.704694509506e-01   7.863035202026e-01   5.003564357758e-01   8.474982380867e-01   1.172658562660e+00 
  1.478327393532e+00   1.210508227348e+00   0.000000000000e+00   0.000000000000e+00   2.016205787659e+00   2.101475954056e+00   2.382348775864e+00   2.935393571854e+00   3.109002590179e+00 
  2.882359266281e+00   2.305627822876e+00   2.146092414856e+00   1.791481852531e+00   1.458372831345e+00   1.254757404327e+00   1.108119606972e+00   1.020984768867e+00   1.007823824883e+00 
  1.251232862473e+00   1.385302424431e+00   1.435786247253e+00   1.298869609833e+00   0.000000000000e+00   0.000000000000e+00   2.691247940063e+00   3.004842042923e+00   3.162134170532e+00 
  3.143435001373e+00   3.151860952377e+00   2.915906906128e+00   2.553672552109e+00   2.431401729584e+00   2.117635250092e+00   1.876111745834e+00   1.769356727600e+00   1.709892392159e+00 
  1.743262290955e+00   1.813686966896e+00   2.121755838394e+00   2.203660964966e+00   2.071549415588e+00   1.746817111969e+00   0.000000000000e+00   0.000000000000e+00   3.714205026627e+00 
  4.497270584106e+00   4.589109420776e+00   3.908445358276e+00   3.829504489899e+00   3.615146160126e+00   3.279471397400e+00   3.124741315842e+00   2.422124862671e+00   2.235993385315e+00 
  2.164117574692e+00   2.170879602432e+00   2.253570318222e+00   2.370107889175e+00   3.146235466003e+00   3.228601694107e+00   2.925507783890e+00   2.150654554367e+00   0.000000000000e+00 
  0.000000000000e+00   7.902684688568e+00   8.244931221008e+00   8.303937911987e+00   7.986933708191e+00   7.835177898407e+00   7.644275665283e+00   7.038852214813e+00   5.628065586090e+00 
  4.536934852600e+00   4.153248310089e+00   3.940507173538e+00   3.768482208252e+00   3.807915687561e+00   4.357086658478e+00   5.473767757416e+00   5.747667789459e+00   5.601336479187e+00 
  5.244388580322e+00   0.000000000000e+00   0.000000000000e+00   6.603023052216e+00   6.638365745544e+00   6.612069606781e+00   6.508513927460e+00   6.422247886658e+00   6.320873260498e+00 
  6.076654434204e+00   5.570519924164e+00   5.483007907867e+00   5.898260593414e+00   5.865675449371e+00   5.311166763306e+00   5.063336372375e+00   5.608830928802e+00   6.729369163513e+00 
  7.147594928741e+00   7.170022010803e+00   7.044612884521e+00   0.000000000000e+00   0.000000000000e+00   5.180439472198e+00   5.075846672058e+00   5.103476524353e+00   5.169585704803e+00 
  5.128968715668e+00   5.007952213287e+00   4.994397640228e+00   5.288655757904e+00   6.163664817810e+00   7.751005172729e+00   7.869770526886e+00   6.539485931396e+00   5.859631538391e+00 
  6.570092678070e+00   8.175099372864e+00   8.790510177612e+00   8.826368331909e+00   8.805335998535e+00   0.000000000000e+00   0.000000000000e+00   4.888628005981e+00   4.805778503418e+00 
  5.035315990448e+00   5.908975124359e+00   5.951028347015e+00   5.051215648651e+00   4.838886260986e+00   5.108075141907e+00   5.783961772919e+00   6.890336513519e+00   6.937428474426e+00 
  6.136829376221e+00   6.033987045288e+00   6.430135250092e+00   7.169818878174e+00   7.499765396118e+00   7.529364585876e+00   7.644631862640e+00   0.000000000000e+00   0.000000000000e+00 
  4.690491199493e+00   4.655384540558e+00   4.717851161957e+00   5.033823490143e+00   5.014382362366e+00   4.641566276550e+00   4.614989757538e+00   4.855581760406e+00   5.217464923859e+00 
  5.728968620300e+00   5.727798938751e+00   5.356786251068e+00   5.281015396118e+00   5.469342231750e+00   5.808448314667e+00   6.008472919464e+00   6.015841960907e+00   6.057713508606e+00 
  0.000000000000e+00   0.000000000000e+00   4.463279724121e+00   4.444011688232e+00   4.388630867004e+00   4.308910369873e+00   4.250712871552e+00   4.167285442352e+00   4.309508323669e+00 
  4.295945167542e+00   4.471721172333e+00   4.541069507599e+00   4.498291015625e+00   4.310045719147e+00   4.159764289856e+00   4.242364406586e+00   4.371987819672e+00   4.380091667175e+00 
  4.278118133545e+00   4.217120647430e+00   0.000000000000e+00   0.000000000000e+00   4.566918849945e+00   4.522527217865e+00   4.473748683929e+00   4.416072368622e+00   4.389709472656e+00 
  4.334259510040e+00   4.369421958923e+00   4.355295181274e+00   4.429525375366e+00   4.316793441772e+00   4.140549659729e+00   3.796413183212e+00   3.447832107544e+00   3.618662357330e+00 
  3.728157758713e+00   3.574892282486e+00   3.226097822189e+00   3.056883573532e+00   0.000000000000e+00   0.000000000000e+00   4.652911663055e+00   4.626264095306e+00   4.579867362976e+00 
  4.540943622589e+00   4.511970043182e+00   4.503402233124e+00   4.480130195618e+00   4.442659854889e+00   4.397758007050e+00   4.232748031616e+00   3.953187942505e+00   3.433228254318e+00 
  2.663118600845e+00   3.152992248535e+00   3.334806919098e+00   3.061994552612e+00   2.293923854828e+00   2.104255676270e+00   0.000000000000e+00   0.000000000000e+00   4.781912326813e+00 
  4.738106727600e+00   4.673435688019e+00   4.636834621429e+00   4.600294589996e+00   4.562814235687e+00   4.514096260071e+00   4.461310386658e+00   4.376937389374e+00   4.250463962555e+00 
  4.019865989685e+00   3.669278860092e+00   3.317729473114e+00   3.436983346939e+00   3.482930421829e+00   3.290318965912e+00   2.897215366364e+00   2.728127002716e+00   0.000000000000e+00 
  0.000000000000e+00   4.953292369843e+00   4.899088859558e+00   4.925472259521e+00   4.836774349213e+00   4.803584098816e+00   4.760702610016e+00   4.727623939514e+00   4.640837192535e+00 
  4.569179058075e+00   4.456618309021e+00   4.290232181549e+00   4.110177040100e+00   3.923311710358e+00   3.913814783096e+00   3.918049335480e+00   3.794415473938e+00   3.631615161896e+00 
  3.529172658920e+00   0.000000000000e+00   0.000000000000e+00   5.084123611450e+00   5.034873962402e+00   5.061180591583e+00   5.010879516602e+00   4.975265502930e+00   4.921905040741e+00 
  4.883146286011e+00   4.809278488159e+00   4.743136405945e+00   4.660664081573e+00   4.552667140961e+00   4.459267616272e+00   4.351738929749e+00   4.321965217590e+00   4.316090583801e+00 
  4.243644714355e+00   4.192825794220e+00   4.064474582672e+00   0.000000000000e+00   0.000000000000e+00   5.164661407471e+00   5.166871547699e+00   5.170351028442e+00   5.161835670471e+00 
  5.144180774689e+00   5.103497505188e+00   5.050822257996e+00   4.998096942902e+00   4.938969612122e+00   4.874519348145e+00   4.805419921875e+00   4.731910228729e+00   4.682460308075e+00 
  4.649454116821e+00   4.622185707092e+00   4.589302062988e+00   4.577256202698e+00   4.481516838074e+00   0.000000000000e+00   0.000000000000e+00   5.283305644989e+00   5.283185958862e+00 
  5.287806034088e+00   5.278997421265e+00   5.252059936523e+00   5.195538997650e+00   5.122331142426e+00   5.057372570038e+00   5.012086391449e+00   4.973662376404e+00   4.944967746735e+00 
  4.871929168701e+00   4.829984188080e+00   4.813062191010e+00   4.821099281311e+00   4.825325489044e+00   4.785978794098e+00   4.766228675842e+00   0.000000000000e+00   0.000000000000e+00 
  5.322579860687e+00   5.320679187775e+00   5.333321094513e+00   5.331641674042e+00   5.298954486847e+00   5.278812408447e+00   5.264594078064e+00   5.223751544952e+00   5.169780254364e+00 
  5.114452362061e+00   5.044017314911e+00   5.033736228943e+00   5.023624897003e+00   4.999364376068e+00   4.952004432678e+00   4.891363620758e+00   4.856950283051e+00   4.885350704193e+00 
  0.000000000000e+00   0.000000000000e+00   0.000000000000e+00   0.000000000000e+00   0.000000000000e+00   0.000000000000e+00   0.000000000000e+00   0.000000000000e+00   0.000000000000e+00 
  0.000000000000e+00   0.000000000000e+00   0.000000000000e+00   0.000000000000e+00   0.000000000000e+00   0.000000000000e+00   0.000000000000e+00   0.000000000000e+00   0.000000000000e+00 
  0.000000000000e+00   0.000000000000e+00   0.000000000000e+00   0.000000000000e+00   0.000000000000e+00   0.000000000000e+00   0.000000000000e+00   0.000000000000e+00   0.000000000000e+00 
  0.000000000000e+00   0.000000000000e+00   0.000000000000e+00   0.000000000000e+00   0.000000000000e+00   0.000000000000e+00   0.000000000000e+00   0.000000000000e+00   0.000000000000e+00 
  0.000000000000e+00   0.000000000000e+00   0.000000000000e+00   0.000000000000e+00   0.000000000000e+00   0.000000000000e+00   1.125048398972e+00   9.779145121574e-01   1.201902270317e+00 
  1.898072123528e+00   2.154662132263e+00   1.924524903297e+00   1.247286677361e+00   1.019209504128e+00   8.148413896561e-01   6.157584190369e-01   4.832850992680e-01   3.430182933807e-01 
  2.607702016830e-01   1.792442798615e-01   2.423517107964e-01   2.934674918652e-01   3.507488965988e-01   3.267863094807e-01   0.000000000000e+00   0.000000000000e+00   1.510298252106e+00 
  6.217904686928e-01   5.581363439560e-01   2.184484481812e+00   2.592150688171e+00   2.109371185303e+00   1.293274641037e+00   1.704992294312e+00   2.005941629410e+00   2.120827198029e+00 
  2.319411754608e+00   2.537545442581e+00   2.899837970734e+00   3.332634687424e+00   3.644325017929e+00   3.704838752747e+00   3.984139442444e+00   4.420638561249e+00   0.000000000000e+00 
  0.000000000000e+00   1.936439871788e+00   1.828848004341e+00   1.904680609703e+00   2.255517959595e+00   2.319821357727e+00   2.091842651367e+00   1.483075737953e+00   1.255457758904e+00 
  1.124875783920e+00   1.016446352005e+00   9.899889230728e-01   9.799112677574e-01   1.031449675560e+00   1.073792934418e+00   1.163603901863e+00   1.181632280350e+00   1.160415768623e+00 
  1.112378835678e+00   0.000000000000e+00   0.000000000000e+00   2.919879674911e+00   3.050133228302e+00   3.088424205780e+00   3.014596462250e+00   2.960008382797e+00   2.772961616516e+00 
  2.380762577057e+00   1.942273855209e+00   1.537265777588e+00   1.349198341370e+00   1.288043618202e+00   1.250463962555e+00   1.280693769455e+00   1.378717660904e+00   1.623125553131e+00 
  1.698743343353e+00   1.639437079430e+00   1.462505936623e+00   0.000000000000e+00   0.000000000000e+00   4.762252330780e+00   4.861271381378e+00   4.883728981018e+00   4.787023544312e+00 
  4.678583621979e+00   4.517613410950e+00   4.077148914337e+00   3.218698978424e+00   2.540014266968e+00   2.294953584671e+00   2.199987411499e+00   2.112605094910e+00   2.110191583633e+00 
  2.328166246414e+00   2.756450653076e+00   2.897386550903e+00   2.872062206268e+00   2.757175445557e+00   0.000000000000e+00   0.000000000000e+00   4.136737346649e+00   4.124693870544e+00 
  4.073043823242e+00   3.995902299881e+00   3.924677371979e+00   3.846363782883e+00   3.667598485947e+00   3.365998744965e+00   3.230617761612e+00   3.312422037125e+00   3.277985572815e+00 
  3.085152387619e+00   3.020592927933e+00   3.261788845062e+00   3.720456600189e+00   3.982344388962e+00   4.066489219666e+00   4.037294387817e+00   0.000000000000e+00   0.000000000000e+00 