# vtk DataFile Version 2.0
Written using VisIt writer
ASCII
DATASET RECTILINEAR_GRID
DIMENSIONS 20 20 20
X_COORDINATES 20 float
  0.000000000000e+00   1.000000000000e+00   2.000000000000e+00   3.000000000000e+00   4.000000000000e+00   5.000000000000e+00   6.000000000000e+00   7.000000000000e+00   8.000000000000e+00 
  9.000000000000e+00   1.000000000000e+01   1.100000000000e+01   1.200000000000e+01   1.300000000000e+01   1.400000000000e+01   1.500000000000e+01   1.600000000000e+01   1.700000000000e+01 
  1.800000000000e+01   1.900000000000e+01 
Y_COORDINATES 20 float
  0.000000000000e+00   1.000000000000e+00   2.000000000000e+00   3.000000000000e+00   4.000000000000e+00   5.000000000000e+00   6.000000000000e+00   7.000000000000e+00   8.000000000000e+00 
  9.000000000000e+00   1.000000000000e+01   1.100000000000e+01   1.200000000000e+01   1.300000000000e+01   1.400000000000e+01   1.500000000000e+01   1.600000000000e+01   1.700000000000e+01 
  1.800000000000e+01   1.900000000000e+01 
Z_COORDINATES 20 float
  0.000000000000e+00   1.000000000000e+00   2.000000000000e+00   3.000000000000e+00   4.000000000000e+00   5.000000000000e+00   6.000000000000e+00   7.000000000000e+00   8.000000000000e+00 
  9.000000000000e+00   1.000000000000e+01   1.100000000000e+01   1.200000000000e+01   1.300000000000e+01   1.400000000000e+01   1.500000000000e+01   1.600000000000e+01   1.700000000000e+01 
  1.800000000000e+01   1.900000000000e+01 
CELL_DATA 6859
POINT_DATA 8000
SCALARS pressure float
LOOKUP_TABLE default
  0.000000000000e+00   0.000000000000e+00   0.000000000000e+00   0.000000000000e+00   0.000000000000e+00   0.000000000000e+00   0.000000000000e+00   0.000000000000e+00   0.000000000000e+00 
  0.000000000000e+00   0.000000000000e+00   0.000000000000e+00   0.000000000000e+00   0.000000000000e+00   0.000000000000e+00   0.000000000000e+00   0.000000000000e+00   0.000000000000e+00 
  0.000000000000e+00   0.000000000000e+00   0.000000000000e+00   0.000000000000e+00   0.000000000000e+00   0.000000000000e+00   0.000000000000e+00   0.000000000000e+00   0.000000000000e+00 
  0.000000000000e+00   0.000000000000e+00   0.000000000000e+00   0.000000000000e+00   0.000000000000e+00   0.000000000000e+00   0.000000000000e+00   0.000000000000e+00   0.000000000000e+00 
  0.000000000000e+00   0.000000000000e+00   0.000000000000e+00   0.000000000000e+00   0.000000000000e+00   0.000000000000e+00   0.000000000000e+00   0.000000000000e+00   0.000000000000e+00 
  0.000000000000e+00   0.000000000000e+00   0.000000000000e+00   0.000000000000e+00   0.000000000000e+00   0.000000000000e+00   0.000000000000e+00   0.000000000000e+00   0.000000000000e+00 
  0.000000000000e+00   0.000000000000e+00   0.000000000000e+00   0.000000000000e+00   0.000000000000e+00   0.000000000000e+00   0.000000000000e+00   0.000000000000e+00   0.000000000000e+00 
  0.000000000000e+00   0.000000000000e+00   0.000000000000e+00   0.000000000000e+00   0.000000000000e+00   0.000000000000e+00   0.000000000000e+00   0.000000000000e+00   0.000000000000e+00 
  0.000000000000e+00   0.000000000000e+00   0.000000000000e+00   0.000000000000e+00   0.000000000000e+00   0.000000000000e+00   0.000000000000e+00   0.000000000000e+00   0.000000000000e+00 
  0.000000000000e+00   0.000000000000e+00   0.000000000000e+00   0.000000000000e+00   0.000000000000e+00   0.000000000000e+00   0.000000000000e+00   0.000000000000e+00   0.000000000000e+00 
  0.000000000000e+00   0.000000000000e+00   0.000000000000e+00   0.000000000000e+00   0.000000000000e+00   0.000000000000e+00   0.000000000000e+00   0.000000000000e+00   0.000000000000e+00 
  0.000000000000e+00   0.000000000000e+00   0.000000000000e+00   0.000000000000e+00   0.000000000000e+00   0.000000000000e+00   0.000000000000e+00   0.000000000000e+00   0.000000000000e+00 
  0.000000000000e+00   0.000000000000e+00   0.000000000000e+00   0.000000000000e+00   0.000000000000e+00   0.000000000000e+00   0.000000000000e+00   0.000000000000e+00   0.000000000000e+00 
  0.000000000000e+00   0.000000000000e+00   0.000000000000e+00   0.000000000000e+00   0.000000000000e+00   0.000000000000e+00   0.000000000000e+00   0.000000000000e+00   0.000000000000e+00 
  0.000000000000e+00   0.000000000000e+00   0.000000000000e+00   0.000000000000e+00   0.000000000000e+00   0.000000000000e+00   0.000000000000e+00   0.000000000000e+00   0.000000000000e+00 
  0.000000000000e+00   0.000000000000e+00   0.000000000000e+00   0.000000000000e+00   0.000000000000e+00   0.000000000000e+00   0.000000000000e+00   0.000000000000e+00   0.000000000000e+00 
  0.000000000000e+00   0.000000000000e+00   0.000000000000e+00   0.000000000000e+00   0.000000000000e+00   0.000000000000e+00   0.000000000000e+00   0.000000000000e+00   0.000000000000e+00 
  0.000000000000e+00   0.000000000000e+00   0.000000000000e+00   0.000000000000e+00   0.000000000000e+00   0.000000000000e+00   0.000000000000e+00   0.000000000000e+00   0.000000000000e+00 
  0.000000000000e+00   0.000000000000e+00   0.000000000000e+00   0.000000000000e+00   0.000000000000e+00   0.000000000000e+00   0.000000000000e+00   0.000000000000e+00   0.000000000000e+00 
  0.000000000000e+00   0.000000000000e+00   0.000000000000e+00   0.000000000000e+00   0.000000000000e+00   0.000000000000e+00   0.000000000000e+00   0.000000000000e+00   0.000000000000e+00 
  0.000000000000e+00   0.000000000000e+00   0.000000000000e+00   0.000000000000e+00   0.000000000000e+00   0.000000000000e+00   0.000000000000e+00   0.000000000000e+00   0.000000000000e+00 
  0.000000000000e+00   0.000000000000e+00   0.000000000000e+00   0.000000000000e+00   0.000000000000e+00   0.000000000000e+00   0.000000000000e+00   0.000000000000e+00   0.000000000000e+00 
  0.000000000000e+00   0.000000000000e+00   0.000000000000e+00   0.000000000000e+00   0.000000000000e+00   0.000000000000e+00   0.000000000000e+00   0.000000000000e+00   0.000000000000e+00 
  0.000000000000e+00   0.000000000000e+00   0.000000000000e+00   0.000000000000e+00   0.000000000000e+00   0.000000000000e+00   0.000000000000e+00   0.000000000000e+00   0.000000000000e+00 
  0.000000000000e+00   0.000000000000e+00   0.000000000000e+00   0.000000000000e+00   0.000000000000e+00   0.000000000000e+00   0.000000000000e+00   0.000000000000e+00   0.000000000000e+00 
  0.000000000000e+00   0.000000000000e+00   0.000000000000e+00   0.000000000000e+00   0.000000000000e+00   0.000000000000e+00   0.000000000000e+00   0.000000000000e+00   0.000000000000e+00 
  0.000000000000e+00   0.000000000000e+00   0.000000000000e+00   0.000000000000e+00   0.000000000000e+00   0.000000000000e+00   0.000000000000e+00   0.000000000000e+00   0.000000000000e+00 
  0.000000000000e+00   0.000000000000e+00   0.000000000000e+00   0.000000000000e+00   0.000000000000e+00   0.000000000000e+00   0.000000000000e+00   0.000000000000e+00   0.000000000000e+00 
  0.000000000000e+00   0.000000000000e+00   0.000000000000e+00   0.000000000000e+00   0.000000000000e+00   0.000000000000e+00   0.000000000000e+00   0.000000000000e+00   0.000000000000e+00 
  0.000000000000e+00   0.000000000000e+00   0.000000000000e+00   0.000000000000e+00   0.000000000000e+00   0.000000000000e+00   0.000000000000e+00   0.000000000000e+00   0.000000000000e+00 
  0.000000000000e+00   0.000000000000e+00   0.000000000000e+00   0.000000000000e+00   0.000000000000e+00   0.000000000000e+00   0.000000000000e+00   0.000000000000e+00   0.000000000000e+00 
  0.000000000000e+00   0.000000000000e+00   0.000000000000e+00   0.000000000000e+00   0.000000000000e+00   0.000000000000e+00   0.000000000000e+00   0.000000000000e+00   0.000000000000e+00 
  0.000000000000e+00   0.000000000000e+00   0.000000000000e+00   0.000000000000e+00   0.000000000000e+00   0.000000000000e+00   0.000000000000e+00   0.000000000000e+00   0.000000000000e+00 
  0.000000000000e+00   0.000000000000e+00   0.000000000000e+00   0.000000000000e+00   0.000000000000e+00   0.000000000000e+00   0.000000000000e+00   0.000000000000e+00   0.000000000000e+00 
  0.000000000000e+00   0.000000000000e+00   0.000000000000e+00   0.000000000000e+00   0.000000000000e+00   0.000000000000e+00   0.000000000000e+00   0.000000000000e+00   0.000000000000e+00 
  0.000000000000e+00   0.000000000000e+00   0.000000000000e+00   0.000000000000e+00   0.000000000000e+00   0.000000000000e+00   0.000000000000e+00   0.000000000000e+00   0.000000000000e+00 
  0.000000000000e+00   0.000000000000e+00   0.000000000000e+00   0.000000000000e+00   0.000000000000e+00   0.000000000000e+00   0.000000000000e+00   0.000000000000e+00   0.000000000000e+00 
  0.000000000000e+00   0.000000000000e+00   0.000000000000e+00   0.000000000000e+00   0.000000000000e+00   0.000000000000e+00   0.000000000000e+00   0.000000000000e+00   0.000000000000e+00 
  0.000000000000e+00   0.000000000000e+00   0.000000000000e+00   0.000000000000e+00   0.000000000000e+00   0.000000000000e+00   0.000000000000e+00   0.000000000000e+00   0.000000000000e+00 
  0.000000000000e+00   0.000000000000e+00   0.000000000000e+00   0.000000000000e+00   0.000000000000e+00   0.000000000000e+00   0.000000000000e+00   0.000000000000e+00   0.000000000000e+00 
  0.000000000000e+00   0.000000000000e+00   0.000000000000e+00   0.000000000000e+00   0.000000000000e+00   0.000000000000e+00   0.000000000000e+00   0.000000000000e+00   0.000000000000e+00 
  0.000000000000e+00   0.000000000000e+00   0.000000000000e+00   0.000000000000e+00   0.000000000000e+00   0.000000000000e+00   0.000000000000e+00   0.000000000000e+00   0.000000000000e+00 
  0.000000000000e+00   0.000000000000e+00   0.000000000000e+00   0.000000000000e+00   0.000000000000e+00   0.000000000000e+00   0.000000000000e+00   0.000000000000e+00   0.000000000000e+00 
  0.000000000000e+00   0.000000000000e+00   0.000000000000e+00   0.000000000000e+00   0.000000000000e+00   0.000000000000e+00   0.000000000000e+00   0.000000000000e+00   0.000000000000e+00 
  0.000000000000e+00   0.000000000000e+00   0.000000000000e+00   0.000000000000e+00   0.000000000000e+00   0.000000000000e+00   0.000000000000e+00   0.000000000000e+00   0.000000000000e+00 
  0.000000000000e+00   0.000000000000e+00   0.000000000000e+00   0.000000000000e+00   0.000000000000e+00   0.000000000000e+00   0.000000000000e+00   0.000000000000e+00   0.000000000000e+00 
  0.000000000000e+00   0.000000000000e+00   0.000000000000e+00   0.000000000000e+00   0.000000000000e+00   0.000000000000e+00   0.000000000000e+00   7.880927562714e+00   7.881011962891e+00 
  7.881171226501e+00   7.881392955780e+00   7.881657600403e+00   7.881942749023e+00   7.882224559784e+00   7.882480621338e+00   7.882691383362e+00   7.882843494415e+00   7.882929801941e+00 
  7.882949352264e+00   7.882909297943e+00   7.882823467255e+00   7.882711887360e+00   7.882604122162e+00   7.882477760315e+00   7.882640838623e+00   0.000000000000e+00   0.000000000000e+00 
  7.789074420929e+00   7.789164543152e+00   7.789333820343e+00   7.789568424225e+00   7.789846897125e+00   7.790144920349e+00   7.790435791016e+00   7.790695667267e+00   7.790904521942e+00 
  7.791048526764e+00   7.791119575500e+00   7.791118621826e+00   7.791052818298e+00   7.790937900543e+00   7.790796756744e+00   7.790662288666e+00   7.790515422821e+00   7.790672779083e+00 
  0.000000000000e+00   0.000000000000e+00   7.602285861969e+00   7.602386951447e+00   7.602575302124e+00   7.602834224701e+00   7.603139400482e+00   7.603460311890e+00   7.603765964508e+00 
  7.604029655457e+00   7.604229927063e+00   7.604351520538e+00   7.604388237000e+00   7.604341506958e+00   7.604220390320e+00   7.604044437408e+00   7.603841304779e+00   7.603651046753e+00 
  7.603460311890e+00   7.603604793549e+00   0.000000000000e+00   0.000000000000e+00   7.313970088959e+00   7.314111232758e+00   7.314370155334e+00   7.314719200134e+00   7.315119266510e+00 
  7.315525054932e+00   7.315894603729e+00   7.316194534302e+00   7.316401004791e+00   7.316502571106e+00   7.316495418549e+00   7.316382884979e+00   7.316180229187e+00   7.315911769867e+00 
  7.315614223480e+00   7.315338134766e+00   7.315081119537e+00   7.315203189850e+00   0.000000000000e+00   0.000000000000e+00   6.951545238495e+00   6.951758861542e+00   6.952142238617e+00 
  6.952642917633e+00   6.953194618225e+00   6.953729152679e+00   6.954185962677e+00   6.954524993896e+00   6.954725742340e+00   6.954783439636e+00   6.954701423645e+00   6.954489707947e+00 
  6.954167842865e+00   6.953768730164e+00   6.953339576721e+00   6.952944755554e+00   6.952596187592e+00   6.952684402466e+00   0.000000000000e+00   0.000000000000e+00   6.481831550598e+00 
  6.482142925262e+00   6.482672214508e+00   6.483328819275e+00   6.484014987946e+00   6.484631538391e+00   6.485102176666e+00   6.485392093658e+00   6.485496044159e+00   6.485424518585e+00 
  6.485190868378e+00   6.484812259674e+00   6.484313011169e+00   6.483733654022e+00   6.483131885529e+00   6.482585906982e+00   6.482123374939e+00   6.482161998749e+00   0.000000000000e+00 
  0.000000000000e+00   5.837535381317e+00   5.838030815125e+00   5.838788032532e+00   5.839617729187e+00   5.840387821198e+00   5.840978145599e+00   5.841320991516e+00   5.841416835785e+00 
  5.841293811798e+00   5.840983867645e+00   5.840511322021e+00   5.839899063110e+00   5.839173793793e+00   5.838381290436e+00   5.837587356567e+00   5.836879253387e+00   5.836299419403e+00 
  5.836276054382e+00   0.000000000000e+00   0.000000000000e+00   4.984075069427e+00   4.984316349030e+00   4.984653472900e+00   4.985006809235e+00   4.985169410706e+00   4.985098361969e+00 
  4.984842777252e+00   4.984435558319e+00   4.983884811401e+00   4.983214378357e+00   4.982433319092e+00   4.981555938721e+00   4.980607032776e+00   4.979630470276e+00   4.978687763214e+00 
  4.977864265442e+00   4.977208614349e+00   4.977128028870e+00   0.000000000000e+00   0.000000000000e+00   3.833744525909e+00   3.836648702621e+00   3.840265512466e+00   3.842394351959e+00 
  3.843440532684e+00   3.843450784683e+00   3.842715263367e+00   3.841766834259e+00   3.840737104416e+00   3.839678049088e+00   3.838589906693e+00   3.837486743927e+00   3.836386203766e+00 
  3.835324764252e+00   3.834348440170e+00   3.833521366119e+00   3.832881212234e+00   3.832767248154e+00   0.000000000000e+00   0.000000000000e+00   2.440575361252e+00   2.438342571259e+00 
  2.435548305511e+00   2.435247898102e+00   2.432038784027e+00   2.430324316025e+00   2.428831815720e+00   2.427278757095e+00   2.425853013992e+00   2.424571037292e+00   2.423376798630e+00 
  2.422278165817e+00   2.421281576157e+00   2.420398473740e+00   2.419639825821e+00   2.419028282166e+00   2.418570041656e+00   2.418481588364e+00   0.000000000000e+00   0.000000000000e+00 
  0.000000000000e+00   0.000000000000e+00   0.000000000000e+00   0.000000000000e+00   0.000000000000e+00   0.000000000000e+00   0.000000000000e+00   0.000000000000e+00   0.000000000000e+00 
  0.000000000000e+00   0.000000000000e+00   0.000000000000e+00   0.000000000000e+00   0.000000000000e+00   0.000000000000e+00   0.000000000000e+00   0.000000000000e+00   0.000000000000e+00 
  0.000000000000e+00   0.000000000000e+00   0.000000000000e+00   0.000000000000e+00   0.000000000000e+00   0.000000000000e+00   0.000000000000e+00   0.000000000000e+00   0.000000000000e+00 
  0.000000000000e+00   0.000000000000e+00   0.000000000000e+00   0.000000000000e+00   0.000000000000e+00   0.000000000000e+00   0.000000000000e+00   0.000000000000e+00   0.000000000000e+00 
  0.000000000000e+00   0.000000000000e+00   0.000000000000e+00   0.000000000000e+00   0.000000000000e+00   0.000000000000e+00   0.000000000000e+00   0.000000000000e+00   0.000000000000e+00 
  0.000000000000e+00   0.000000000000e+00   0.000000000000e+00   0.000000000000e+00   0.000000000000e+00   0.000000000000e+00   0.000000000000e+00   0.000000000000e+00   0.000000000000e+00 
  0.000000000000e+00   0.000000000000e+00   0.000000000000e+00   0.000000000000e+00   0.000000000000e+00   0.000000000000e+00   0.000000000000e+00   0.000000000000e+00   0.000000000000e+00 
  0.000000000000e+00   0.000000000000e+00   0.000000000000e+00   0.000000000000e+00   0.000000000000e+00   0.000000000000e+00   0.000000000000e+00   0.000000000000e+00   0.000000000000e+00 
  0.000000000000e+00   0.000000000000e+00   0.000000000000e+00   0.000000000000e+00   0.000000000000e+00   0.000000000000e+00   0.000000000000e+00   0.000000000000e+00   0.000000000000e+00 
  0.000000000000e+00   0.000000000000e+00   0.000000000000e+00   0.000000000000e+00   0.000000000000e+00   0.000000000000e+00   0.000000000000e+00   0.000000000000e+00   0.000000000000e+00 
  0.000000000000e+00   0.000000000000e+00   0.000000000000e+00   0.000000000000e+00   0.000000000000e+00   0.000000000000e+00   0.000000000000e+00   0.000000000000e+00   0.000000000000e+00 
  0.000000000000e+00   0.000000000000e+00   0.000000000000e+00   0.000000000000e+00   0.000000000000e+00   0.000000000000e+00   0.000000000000e+00   0.000000000000e+00   0.000000000000e+00 
  0.000000000000e+00   0.000000000000e+00   0.000000000000e+00   0.000000000000e+00   0.000000000000e+00   0.000000000000e+00   0.000000000000e+00   0.000000000000e+00   0.000000000000e+00 
  0.000000000000e+00   0.000000000000e+00   0.000000000000e+00   0.000000000000e+00   0.000000000000e+00   0.000000000000e+00   0.000000000000e+00   0.000000000000e+00   0.000000000000e+00 
  0.000000000000e+00   0.000000000000e+00   0.000000000000e+00   0.000000000000e+00   0.000000000000e+00   0.000000000000e+00   0.000000000000e+00   0.000000000000e+00   0.000000000000e+00 
  0.000000000000e+00   0.000000000000e+00   0.000000000000e+00   0.000000000000e+00   0.000000000000e+00   0.000000000000e+00   0.000000000000e+00   0.000000000000e+00   0.000000000000e+00 
  0.000000000000e+00   0.000000000000e+00   0.000000000000e+00   0.000000000000e+00   0.000000000000e+00   0.000000000000e+00   0.000000000000e+00   0.000000000000e+00   0.000000000000e+00 
  0.000000000000e+00   0.000000000000e+00   0.000000000000e+00   0.000000000000e+00   0.000000000000e+00   0.000000000000e+00   0.000000000000e+00   0.000000000000e+00   0.000000000000e+00 
  0.000000000000e+00   0.000000000000e+00   0.000000000000e+00   0.000000000000e+00   0.000000000000e+00   0.000000000000e+00   0.000000000000e+00   0.000000000000e+00   0.000000000000e+00 
  0.000000000000e+00   0.000000000000e+00   0.000000000000e+00   0.000000000000e+00   0.000000000000e+00   0.000000000000e+00   0.000000000000e+00   0.000000000000e+00   0.000000000000e+00 
  0.000000000000e+00   0.000000000000e+00   0.000000000000e+00   0.000000000000e+00   0.000000000000e+00   0.000000000000e+00   0.000000000000e+00   0.000000000000e+00   0.000000000000e+00 
  0.000000000000e+00   0.000000000000e+00   0.000000000000e+00   0.000000000000e+00   0.000000000000e+00   0.000000000000e+00   0.000000000000e+00   0.000000000000e+00   0.000000000000e+00 
  0.000000000000e+00   0.000000000000e+00   6.950905799866e+00   6.950985908508e+00   6.951137542725e+00   6.951349735260e+00   6.951604843140e+00   6.951881408691e+00   6.952157497406e+00 
  6.952410221100e+00   6.952621459961e+00   6.952776908875e+00   6.952867507935e+00   6.952891826630e+00   6.952856063843e+00   6.952773094177e+00   6.952662944794e+00   6.952555179596e+00 
  6.952429294586e+00   6.952588081360e+00   0.000000000000e+00   0.000000000000e+00   6.861244201660e+00   6.861329078674e+00   6.861490249634e+00   6.861714363098e+00   6.861983776093e+00 
  6.862275123596e+00   6.862562656403e+00   6.862823486328e+00   6.863036155701e+00   6.863186359406e+00   6.863265991211e+00   6.863272190094e+00   6.863212585449e+00   6.863101482391e+00 
  6.862961292267e+00   6.862825870514e+00   6.862678050995e+00   6.862830162048e+00   0.000000000000e+00   0.000000000000e+00   6.679291248322e+00   6.679386615753e+00   6.679565906525e+00 
  6.679815769196e+00   6.680114746094e+00   6.680434703827e+00   6.680746078491e+00   6.681019306183e+00   6.681233406067e+00   6.681370735168e+00   6.681424140930e+00   6.681391239166e+00 
  6.681279659271e+00   6.681108474731e+00   6.680904865265e+00   6.680710315704e+00   6.680515766144e+00   6.680653572083e+00   0.000000000000e+00   0.000000000000e+00   6.397217273712e+00 
  6.397334575653e+00   6.397554874420e+00   6.397861480713e+00   6.398224353790e+00   6.398605823517e+00   6.398964881897e+00   6.399266719818e+00   6.399484634399e+00   6.399602890015e+00 
  6.399614810944e+00   6.399518966675e+00   6.399325370789e+00   6.399057388306e+00   6.398752212524e+00   6.398462772369e+00   6.398193359375e+00   6.398304939270e+00   0.000000000000e+00 
  0.000000000000e+00   6.041504859924e+00   6.041669368744e+00   6.041975021362e+00   6.042398452759e+00   6.042895317078e+00   6.043403625488e+00   6.043860435486e+00   6.044219017029e+00 
  6.044450283051e+00   6.044543743134e+00   6.044497489929e+00   6.044312477112e+00   6.044002532959e+00   6.043597698212e+00   6.043147563934e+00   6.042723178864e+00   6.042346954346e+00 
  6.042417049408e+00   0.000000000000e+00   0.000000000000e+00   5.587413311005e+00   5.587626934052e+00   5.588012218475e+00   5.588559150696e+00   5.589207172394e+00   5.589849472046e+00 
  5.590387344360e+00   5.590761184692e+00   5.590950012207e+00   5.590957641602e+00   5.590791702271e+00   5.590458869934e+00   5.589973449707e+00   5.589374542236e+00   5.588726043701e+00 
  5.588119506836e+00   5.587601661682e+00   5.587609291077e+00   0.000000000000e+00   0.000000000000e+00   4.972513198853e+00   4.972738265991e+00   4.973116397858e+00   4.973714828491e+00 
  4.974455833435e+00   4.975149631500e+00   4.975645065308e+00   4.975892066956e+00   4.975898742676e+00   4.975694179535e+00   4.975299358368e+00   4.974725246429e+00   4.973987579346e+00 
  4.973133563995e+00   4.972239971161e+00   4.971415996552e+00   4.970733642578e+00   4.970657348633e+00   0.000000000000e+00   0.000000000000e+00   4.165854454041e+00   4.166007041931e+00 
  4.166166305542e+00   4.166607856750e+00   4.167150020599e+00   4.167540073395e+00   4.167638778687e+00   4.167448997498e+00   4.167027950287e+00   4.166431427002e+00   4.165672302246e+00 
  4.164766311646e+00   4.163723468781e+00   4.162597179413e+00   4.161467075348e+00   4.160446166992e+00   4.159623622894e+00   4.159459114075e+00   0.000000000000e+00   0.000000000000e+00 
  3.082448482513e+00   3.082540750504e+00   3.081516981125e+00   3.081948995590e+00   3.083114385605e+00   3.083768129349e+00   3.083732366562e+00   3.083187818527e+00   3.082392930984e+00 
  3.081430196762e+00   3.080290555954e+00   3.079075336456e+00   3.077795743942e+00   3.076508760452e+00   3.075279474258e+00   3.074202299118e+00   3.073356628418e+00   3.073142528534e+00 
  0.000000000000e+00   0.000000000000e+00   1.833015561104e+00   1.830357193947e+00   1.832041025162e+00   1.830488801003e+00   1.825191736221e+00   1.820665597916e+00   1.818290233612e+00 
  1.816518545151e+00   1.814833641052e+00   1.813292026520e+00   1.811652541161e+00   1.810141682625e+00   1.808774352074e+00   1.807561278343e+00   1.806508541107e+00   1.805647134781e+00 
  1.805000305176e+00   1.804826498032e+00   0.000000000000e+00   0.000000000000e+00   0.000000000000e+00   0.000000000000e+00   0.000000000000e+00   0.000000000000e+00   0.000000000000e+00 
  0.000000000000e+00   0.000000000000e+00   0.000000000000e+00   0.000000000000e+00   0.000000000000e+00   0.000000000000e+00   0.000000000000e+00   0.000000000000e+00   0.000000000000e+00 
  0.000000000000e+00   0.000000000000e+00   0.000000000000e+00   0.000000000000e+00   0.000000000000e+00   0.000000000000e+00   0.000000000000e+00   0.000000000000e+00   0.000000000000e+00 
  0.000000000000e+00   0.000000000000e+00   0.000000000000e+00   0.000000000000e+00   0.000000000000e+00   0.000000000000e+00   0.000000000000e+00   0.000000000000e+00   0.000000000000e+00 
  0.000000000000e+00   0.000000000000e+00   0.000000000000e+00   0.000000000000e+00   0.000000000000e+00   0.000000000000e+00   0.000000000000e+00   0.000000000000e+00   0.000000000000e+00 
  0.000000000000e+00   0.000000000000e+00   0.000000000000e+00   0.000000000000e+00   0.000000000000e+00   0.000000000000e+00   0.000000000000e+00   0.000000000000e+00   0.000000000000e+00 
  0.000000000000e+00   0.000000000000e+00   0.000000000000e+00   0.000000000000e+00   0.000000000000e+00   0.000000000000e+00   0.000000000000e+00   0.000000000000e+00   0.000000000000e+00 
  0.000000000000e+00   0.000000000000e+00   0.000000000000e+00   0.000000000000e+00   0.000000000000e+00   0.000000000000e+00   0.000000000000e+00   0.000000000000e+00   0.000000000000e+00 
  0.000000000000e+00   0.000000000000e+00   0.000000000000e+00   0.000000000000e+00   0.000000000000e+00   0.000000000000e+00   0.000000000000e+00   0.000000000000e+00   0.000000000000e+00 
  0.000000000000e+00   0.000000000000e+00   0.000000000000e+00   0.000000000000e+00   0.000000000000e+00   0.000000000000e+00   0.000000000000e+00   0.000000000000e+00   0.000000000000e+00 
  0.000000000000e+00   0.000000000000e+00   0.000000000000e+00   0.000000000000e+00   0.000000000000e+00   0.000000000000e+00   0.000000000000e+00   0.000000000000e+00   0.000000000000e+00 
  0.000000000000e+00   0.000000000000e+00   0.000000000000e+00   0.000000000000e+00   0.000000000000e+00   0.000000000000e+00   0.000000000000e+00   0.000000000000e+00   0.000000000000e+00 
  0.000000000000e+00   0.000000000000e+00   0.000000000000e+00   0.000000000000e+00   0.000000000000e+00   0.000000000000e+00   0.000000000000e+00   0.000000000000e+00   0.000000000000e+00 
  0.000000000000e+00   0.000000000000e+00   0.000000000000e+00   0.000000000000e+00   0.000000000000e+00   0.000000000000e+00   0.000000000000e+00   0.000000000000e+00   0.000000000000e+00 
  0.000000000000e+00   0.000000000000e+00   0.000000000000e+00   0.000000000000e+00   0.000000000000e+00   0.000000000000e+00   0.000000000000e+00   0.000000000000e+00   0.000000000000e+00 
  0.000000000000e+00   0.000000000000e+00   0.000000000000e+00   0.000000000000e+00   0.000000000000e+00   0.000000000000e+00   0.000000000000e+00   0.000000000000e+00   0.000000000000e+00 
  0.000000000000e+00   0.000000000000e+00   0.000000000000e+00   0.000000000000e+00   0.000000000000e+00   0.000000000000e+00   0.000000000000e+00   0.000000000000e+00   0.000000000000e+00 
  0.000000000000e+00   0.000000000000e+00   0.000000000000e+00   0.000000000000e+00   0.000000000000e+00   0.000000000000e+00   0.000000000000e+00   0.000000000000e+00   0.000000000000e+00 
  0.000000000000e+00   0.000000000000e+00   0.000000000000e+00   0.000000000000e+00   0.000000000000e+00   0.000000000000e+00   0.000000000000e+00   0.000000000000e+00   0.000000000000e+00 
  0.000000000000e+00   0.000000000000e+00   0.000000000000e+00   0.000000000000e+00   0.000000000000e+00   0.000000000000e+00   0.000000000000e+00   0.000000000000e+00   0.000000000000e+00 
  0.000000000000e+00   0.000000000000e+00   0.000000000000e+00   0.000000000000e+00   0.000000000000e+00   0.000000000000e+00   0.000000000000e+00   0.000000000000e+00   0.000000000000e+00 
  0.000000000000e+00   0.000000000000e+00   0.000000000000e+00   0.000000000000e+00   0.000000000000e+00   0.000000000000e+00   0.000000000000e+00   0.000000000000e+00   0.000000000000e+00 
  0.000000000000e+00   0.000000000000e+00   0.000000000000e+00   0.000000000000e+00   0.000000000000e+00   0.000000000000e+00   6.090068817139e+00   6.090141296387e+00   6.090278625488e+00 
  6.090473175049e+00   6.090709686279e+00   6.090970516205e+00   6.091234683990e+00   6.091481208801e+00   6.091691970825e+00   6.091851234436e+00   6.091948986053e+00   6.091981887817e+00 
  6.091954231262e+00   6.091877460480e+00   6.091770648956e+00   6.091663360596e+00   6.091538906097e+00   6.091688632965e+00   0.000000000000e+00   0.000000000000e+00   6.004436969757e+00 
  6.004512310028e+00   6.004656791687e+00   6.004861354828e+00   6.005111694336e+00   6.005387783051e+00   6.005666732788e+00   6.005925655365e+00   6.006143569946e+00   6.006304264069e+00 
  6.006396770477e+00   6.006416797638e+00   6.006368637085e+00   6.006264686584e+00   6.006127357483e+00   6.005990505219e+00   6.005841732025e+00   6.005984306335e+00   0.000000000000e+00 
  0.000000000000e+00   5.831294536591e+00   5.831376552582e+00   5.831534385681e+00   5.831760406494e+00   5.832038879395e+00   5.832346916199e+00   5.832656860352e+00   5.832939624786e+00 
  5.833171367645e+00   5.833333492279e+00   5.833413600922e+00   5.833405494690e+00   5.833312034607e+00   5.833149433136e+00   5.832945823669e+00   5.832744598389e+00   5.832543373108e+00 
  5.832667827606e+00   0.000000000000e+00   0.000000000000e+00   5.563829898834e+00   5.563917160034e+00   5.564087390900e+00   5.564337730408e+00   5.564651966095e+00   5.565002918243e+00 
  5.565353870392e+00   5.565666675568e+00   5.565911769867e+00   5.566067695618e+00   5.566121101379e+00   5.566061973572e+00   5.565891265869e+00   5.565629005432e+00   5.565311908722e+00 
  5.565000057220e+00   5.564709186554e+00   5.564800262451e+00   0.000000000000e+00   0.000000000000e+00   5.219420909882e+00   5.219519615173e+00   5.219717979431e+00   5.220026493073e+00 
  5.220428943634e+00   5.220884323120e+00   5.221335887909e+00   5.221724033356e+00   5.222008705139e+00   5.222170829773e+00   5.222197055817e+00   5.222073078156e+00   5.221795082092e+00 
  5.221386432648e+00   5.220900535583e+00   5.220421314240e+00   5.219992160797e+00   5.220026969910e+00   0.000000000000e+00   0.000000000000e+00   4.783529281616e+00   4.783607482910e+00 
  4.783787727356e+00   4.784125328064e+00   4.784611701965e+00   4.785185337067e+00   4.785748004913e+00   4.786205291748e+00   4.786503791809e+00   4.786635875702e+00   4.786596298218e+00 
  4.786361217499e+00   4.785914897919e+00   4.785288333893e+00   4.784554481506e+00   4.783829689026e+00   4.783200263977e+00   4.783143043518e+00   0.000000000000e+00   0.000000000000e+00 