# vtk DataFile Version 2.0
Written using VisIt writer
ASCII
DATASET RECTILINEAR_GRID
DIMENSIONS 20 20 20
X_COORDINATES 20 float
  0.000000000000e+00   1.000000000000e+00   2.000000000000e+00   3.000000000000e+00   4.000000000000e+00   5.000000000000e+00   6.000000000000e+00   7.000000000000e+00   8.000000000000e+00 
  9.000000000000e+00   1.000000000000e+01   1.100000000000e+01   1.200000000000e+01   1.300000000000e+01   1.400000000000e+01   1.500000000000e+01   1.600000000000e+01   1.700000000000e+01 
  1.800000000000e+01   1.900000000000e+01 
Y_COORDINATES 20 float
  0.000000000000e+00   1.000000000000e+00   2.000000000000e+00   3.000000000000e+00   4.000000000000e+00   5.000000000000e+00   6.000000000000e+00   7.000000000000e+00   8.000000000000e+00 
  9.000000000000e+00   1.000000000000e+01   1.100000000000e+01   1.200000000000e+01   1.300000000000e+01   1.400000000000e+01   1.500000000000e+01   1.600000000000e+01   1.700000000000e+01 
  1.800000000000e+01   1.900000000000e+01 
Z_COORDINATES 20 float
  0.000000000000e+00   1.000000000000e+00   2.000000000000e+00   3.000000000000e+00   4.000000000000e+00   5.000000000000e+00   6.000000000000e+00   7.000000000000e+00   8.000000000000e+00 
  9.000000000000e+00   1.000000000000e+01   1.100000000000e+01   1.200000000000e+01   1.300000000000e+01   1.400000000000e+01   1.500000000000e+01   1.600000000000e+01   1.700000000000e+01 
  1.800000000000e+01   1.900000000000e+01 
CELL_DATA 6859
POINT_DATA 8000
SCALARS pressure float
LOOKUP_TABLE default
  0.000000000000e+00   0.000000000000e+00   0.000000000000e+00   0.000000000000e+00   0.000000000000e+00   0.000000000000e+00   0.000000000000e+00   0.000000000000e+00   0.000000000000e+00 
  0.000000000000e+00   0.000000000000e+00   0.000000000000e+00   0.000000000000e+00   0.000000000000e+00   0.000000000000e+00   0.000000000000e+00   0.000000000000e+00   0.000000000000e+00 
  0.000000000000e+00   0.000000000000e+00   0.000000000000e+00   0.000000000000e+00   0.000000000000e+00   0.000000000000e+00   0.000000000000e+00   0.000000000000e+00   0.000000000000e+00 
  0.000000000000e+00   0.000000000000e+00   0.000000000000e+00   0.000000000000e+00   0.000000000000e+00   0.000000000000e+00   0.000000000000e+00   0.000000000000e+00   0.000000000000e+00 
  0.000000000000e+00   0.000000000000e+00   0.000000000000e+00   0.000000000000e+00   0.000000000000e+00   0.000000000000e+00   0.000000000000e+00   0.000000000000e+00   0.000000000000e+00 
  0.000000000000e+00   0.000000000000e+00   0.000000000000e+00   0.000000000000e+00   0.000000000000e+00   0.000000000000e+00   0.000000000000e+00   0.000000000000e+00   0.000000000000e+00 
  0.000000000000e+00   0.000000000000e+00   0.000000000000e+00   0.000000000000e+00   0.000000000000e+00   0.000000000000e+00   0.000000000000e+00   0.000000000000e+00   0.000000000000e+00 
  0.000000000000e+00   0.000000000000e+00   0.000000000000e+00   0.000000000000e+00   0.000000000000e+00   0.000000000000e+00   0.000000000000e+00   0.000000000000e+00   0.000000000000e+00 
  0.000000000000e+00   0.000000000000e+00   0.000000000000e+00   0.000000000000e+00   0.000000000000e+00   0.000000000000e+00   0.000000000000e+00   0.000000000000e+00   0.000000000000e+00 
  0.000000000000e+00   0.000000000000e+00   0.000000000000e+00   0.000000000000e+00   0.000000000000e+00   0.000000000000e+00   0.000000000000e+00   0.000000000000e+00   0.000000000000e+00 
  0.000000000000e+00   0.000000000000e+00   0.000000000000e+00   0.000000000000e+00   0.000000000000e+00   0.000000000000e+00   0.000000000000e+00   0.000000000000e+00   0.000000000000e+00 
  0.000000000000e+00   0.000000000000e+00   0.000000000000e+00   0.000000000000e+00   0.000000000000e+00   0.000000000000e+00   0.000000000000e+00   0.000000000000e+00   0.000000000000e+00 
  0.000000000000e+00   0.000000000000e+00   0.000000000000e+00   0.000000000000e+00   0.000000000000e+00   0.000000000000e+00   0.000000000000e+00   0.000000000000e+00   0.000000000000e+00 
  0.000000000000e+00   0.000000000000e+00   0.000000000000e+00   0.000000000000e+00   0.000000000000e+00   0.000000000000e+00   0.000000000000e+00   0.000000000000e+00   0.000000000000e+00 
  0.000000000000e+00   0.000000000000e+00   0.000000000000e+00   0.000000000000e+00   0.000000000000e+00   0.000000000000e+00   0.000000000000e+00   0.000000000000e+00   0.000000000000e+00 
  0.000000000000e+00   0.000000000000e+00   0.000000000000e+00   0.000000000000e+00   0.000000000000e+00   0.000000000000e+00   0.000000000000e+00   0.000000000000e+00   0.000000000000e+00 
  0.000000000000e+00   0.000000000000e+00   0.000000000000e+00   0.000000000000e+00   0.000000000000e+00   0.000000000000e+00   0.000000000000e+00   0.000000000000e+00   0.000000000000e+00 
  0.000000000000e+00   0.000000000000e+00   0.000000000000e+00   0.000000000000e+00   0.000000000000e+00   0.000000000000e+00   0.000000000000e+00   0.000000000000e+00   0.000000000000e+00 
  0.000000000000e+00   0.000000000000e+00   0.000000000000e+00   0.000000000000e+00   0.000000000000e+00   0.000000000000e+00   0.000000000000e+00   0.000000000000e+00   0.000000000000e+00 
  0.000000000000e+00   0.000000000000e+00   0.000000000000e+00   0.000000000000e+00   0.000000000000e+00   0.000000000000e+00   0.000000000000e+00   0.000000000000e+00   0.000000000000e+00 
  0.000000000000e+00   0.000000000000e+00   0.000000000000e+00   0.000000000000e+00   0.000000000000e+00   0.000000000000e+00   0.000000000000e+00   0.000000000000e+00   0.000000000000e+00 
  0.000000000000e+00   0.000000000000e+00   0.000000000000e+00   0.000000000000e+00   0.000000000000e+00   0.000000000000e+00   0.000000000000e+00   0.000000000000e+00   0.000000000000e+00 
  0.000000000000e+00   0.000000000000e+00   0.000000000000e+00   0.000000000000e+00   0.000000000000e+00   0.000000000000e+00   0.000000000000e+00   0.000000000000e+00   0.000000000000e+00 
  0.000000000000e+00   0.000000000000e+00   0.000000000000e+00   0.000000000000e+00   0.000000000000e+00   0.000000000000e+00   0.000000000000e+00   0.000000000000e+00   0.000000000000e+00 
  0.000000000000e+00   0.000000000000e+00   0.000000000000e+00   0.000000000000e+00   0.000000000000e+00   0.000000000000e+00   0.000000000000e+00   0.000000000000e+00   0.000000000000e+00 
  0.000000000000e+00   0.000000000000e+00   0.000000000000e+00   0.000000000000e+00   0.000000000000e+00   0.000000000000e+00   0.000000000000e+00   0.000000000000e+00   0.000000000000e+00 
  0.000000000000e+00   0.000000000000e+00   0.000000000000e+00   0.000000000000e+00   0.000000000000e+00   0.000000000000e+00   0.000000000000e+00   0.000000000000e+00   0.000000000000e+00 
  0.000000000000e+00   0.000000000000e+00   0.000000000000e+00   0.000000000000e+00   0.000000000000e+00   0.000000000000e+00   0.000000000000e+00   0.000000000000e+00   0.000000000000e+00 
  0.000000000000e+00   0.000000000000e+00   0.000000000000e+00   0.000000000000e+00   0.000000000000e+00   0.000000000000e+00   0.000000000000e+00   0.000000000000e+00   0.000000000000e+00 
  0.000000000000e+00   0.000000000000e+00   0.000000000000e+00   0.000000000000e+00   0.000000000000e+00   0.000000000000e+00   0.000000000000e+00   0.000000000000e+00   0.000000000000e+00 
  0.000000000000e+00   0.000000000000e+00   0.000000000000e+00   0.000000000000e+00   0.000000000000e+00   0.000000000000e+00   0.000000000000e+00   0.000000000000e+00   0.000000000000e+00 
  0.000000000000e+00   0.000000000000e+00   0.000000000000e+00   0.000000000000e+00   0.000000000000e+00   0.000000000000e+00   0.000000000000e+00   0.000000000000e+00   0.000000000000e+00 
  0.000000000000e+00   0.000000000000e+00   0.000000000000e+00   0.000000000000e+00   0.000000000000e+00   0.000000000000e+00   0.000000000000e+00   0.000000000000e+00   0.000000000000e+00 
  0.000000000000e+00   0.000000000000e+00   0.000000000000e+00   0.000000000000e+00   0.000000000000e+00   0.000000000000e+00   0.000000000000e+00   0.000000000000e+00   0.000000000000e+00 
  0.000000000000e+00   0.000000000000e+00   0.000000000000e+00   0.000000000000e+00   0.000000000000e+00   0.000000000000e+00   0.000000000000e+00   0.000000000000e+00   0.000000000000e+00 
  0.000000000000e+00   0.000000000000e+00   0.000000000000e+00   0.000000000000e+00   0.000000000000e+00   0.000000000000e+00   0.000000000000e+00   0.000000000000e+00   0.000000000000e+00 
  0.000000000000e+00   0.000000000000e+00   0.000000000000e+00   0.000000000000e+00   0.000000000000e+00   0.000000000000e+00   0.000000000000e+00   0.000000000000e+00   0.000000000000e+00 
  0.000000000000e+00   0.000000000000e+00   0.000000000000e+00   0.000000000000e+00   0.000000000000e+00   0.000000000000e+00   0.000000000000e+00   0.000000000000e+00   0.000000000000e+00 
  0.000000000000e+00   0.000000000000e+00   0.000000000000e+00   0.000000000000e+00   0.000000000000e+00   0.000000000000e+00   0.000000000000e+00   0.000000000000e+00   0.000000000000e+00 
  0.000000000000e+00   0.000000000000e+00   0.000000000000e+00   0.000000000000e+00   0.000000000000e+00   0.000000000000e+00   0.000000000000e+00   0.000000000000e+00   0.000000000000e+00 
  0.000000000000e+00   0.000000000000e+00   0.000000000000e+00   0.000000000000e+00   0.000000000000e+00   0.000000000000e+00   0.000000000000e+00   0.000000000000e+00   0.000000000000e+00 
  0.000000000000e+00   0.000000000000e+00   0.000000000000e+00   0.000000000000e+00   0.000000000000e+00   0.000000000000e+00   0.000000000000e+00   0.000000000000e+00   0.000000000000e+00 
  0.000000000000e+00   0.000000000000e+00   0.000000000000e+00   0.000000000000e+00   0.000000000000e+00   0.000000000000e+00   0.000000000000e+00   0.000000000000e+00   0.000000000000e+00 
  0.000000000000e+00   0.000000000000e+00   0.000000000000e+00   0.000000000000e+00   0.000000000000e+00   0.000000000000e+00   0.000000000000e+00   0.000000000000e+00   0.000000000000e+00 
  0.000000000000e+00   0.000000000000e+00   0.000000000000e+00   0.000000000000e+00   0.000000000000e+00   0.000000000000e+00   0.000000000000e+00   0.000000000000e+00   0.000000000000e+00 
  0.000000000000e+00   0.000000000000e+00   0.000000000000e+00   0.000000000000e+00   0.000000000000e+00   0.000000000000e+00   0.000000000000e+00   0.000000000000e+00   0.000000000000e+00 
  0.000000000000e+00   0.000000000000e+00   0.000000000000e+00   0.000000000000e+00   0.000000000000e+00   0.000000000000e+00   0.000000000000e+00   6.831228256226e+00   6.854876041412e+00 
  6.857499122620e+00   6.859165668488e+00   6.837918758392e+00   6.850716590881e+00   6.835036754608e+00   6.783518314362e+00   6.767625808716e+00   6.831174850464e+00   6.961899757385e+00 
  7.036803245544e+00   7.152968883514e+00   7.153663158417e+00   7.204894542694e+00   7.224385261536e+00   7.255561828613e+00   7.286080360413e+00   0.000000000000e+00   0.000000000000e+00 
  6.751488685608e+00   6.772171020508e+00   6.761128425598e+00   6.783296108246e+00   6.720841884613e+00   6.734246730804e+00   6.724822998047e+00   6.723610401154e+00   6.714610576630e+00 
  6.776413440704e+00   6.838463783264e+00   6.981393337250e+00   7.051884651184e+00   7.115865707397e+00   7.164664268494e+00   7.221669197083e+00   7.233800411224e+00   7.295698642731e+00 
  0.000000000000e+00   0.000000000000e+00   6.548985004425e+00   6.594099044800e+00   6.643429279327e+00   6.595188140869e+00   6.626018047333e+00   6.632093429565e+00   6.670600891113e+00 
  6.642657756805e+00   6.615278720856e+00   6.649638652802e+00   6.804138183594e+00   6.908423423767e+00   7.029922008514e+00   7.063236236572e+00   7.116031169891e+00   7.128259658813e+00 
  7.114060878754e+00   7.209554195404e+00   0.000000000000e+00   0.000000000000e+00   6.361808300018e+00   6.380616188049e+00   6.389208316803e+00   6.396434783936e+00   6.404887199402e+00 
  6.424943923950e+00   6.474384784698e+00   6.461201190948e+00   6.491095066071e+00   6.560681819916e+00   6.660089015961e+00   6.843112468719e+00   6.970227241516e+00   7.077065467834e+00 
  7.081904411316e+00   7.094035148621e+00   7.016573429108e+00   7.127418041229e+00   0.000000000000e+00   0.000000000000e+00   6.145411491394e+00   6.190044879913e+00   6.231758117676e+00 
  6.194938659668e+00   6.185155868530e+00   6.237911701202e+00   6.241040229797e+00   6.321104526520e+00   6.397816181183e+00   6.489107608795e+00   6.603996276855e+00   6.691175937653e+00 
  6.815263748169e+00   6.967770576477e+00   6.998728752136e+00   6.985933780670e+00   6.971713066101e+00   7.031432628632e+00   0.000000000000e+00   0.000000000000e+00   5.892855644226e+00 
  5.903557777405e+00   5.890656948090e+00   5.923100948334e+00   5.948630332947e+00   5.987285137177e+00   6.058026313782e+00   6.098718166351e+00   6.186285495758e+00   6.271601200104e+00 
  6.420484542847e+00   6.666712284088e+00   6.832958221436e+00   6.946743965149e+00   6.969189167023e+00   7.010782241821e+00   7.006893634796e+00   7.026150703430e+00   0.000000000000e+00 
  0.000000000000e+00   5.559044837952e+00   5.583699226379e+00   5.626120090485e+00   5.604263305664e+00   5.581807136536e+00   5.619445800781e+00   5.699147224426e+00   5.767576694489e+00 
  5.816533088684e+00   5.973681926727e+00   6.164752960205e+00   6.357388496399e+00   6.681645870209e+00   6.973901271820e+00   6.888870716095e+00   6.864641189575e+00   6.784455776215e+00 
  6.861758708954e+00   0.000000000000e+00   0.000000000000e+00   5.355860233307e+00   5.368861198425e+00   5.357151031494e+00   5.356570243835e+00   5.339796543121e+00   5.361129760742e+00 
  5.399960517883e+00   5.429397106171e+00   5.516106605530e+00   5.776224136353e+00   5.910831451416e+00   6.224415302277e+00   6.782074451447e+00   7.462337970734e+00   7.083685874939e+00 
  6.796803951263e+00   6.567238807678e+00   6.504562377930e+00   0.000000000000e+00   0.000000000000e+00   5.078351020813e+00   5.050564289093e+00   5.004023551941e+00   4.949075222015e+00 
  4.963870525360e+00   4.970034599304e+00   4.972637176514e+00   4.927146911621e+00   4.965070724487e+00   5.283227920532e+00   5.532217502594e+00   6.007690906525e+00   7.035852909088e+00 
  7.999336242676e+00   7.179098129272e+00   6.488150596619e+00   6.262830257416e+00   5.977197647095e+00   0.000000000000e+00   0.000000000000e+00   4.873052120209e+00   4.875710010529e+00 
  4.810363769531e+00   4.872494220734e+00   4.790884017944e+00   4.761525154114e+00   4.678088665009e+00   4.547803878784e+00   4.377169609070e+00   4.722132205963e+00   5.177826404572e+00 
  5.631161212921e+00   6.236086845398e+00   6.808034420013e+00   6.506389617920e+00   6.159916877747e+00   6.051112174988e+00   5.711426258087e+00   0.000000000000e+00   0.000000000000e+00 
  4.667225837708e+00   4.664918899536e+00   4.638506889343e+00   4.636140823364e+00   4.658043384552e+00   4.679810047150e+00   4.456643581390e+00   3.975250244141e+00   3.297717809677e+00 
  4.041617393494e+00   4.611696243286e+00   5.094088077545e+00   5.521400928497e+00   5.875946521759e+00   5.899721145630e+00   5.811714649200e+00   5.686566352844e+00   5.551042079926e+00 
  0.000000000000e+00   0.000000000000e+00   4.417303085327e+00   4.448861598969e+00   4.460796833038e+00   4.480764865875e+00   4.530724525452e+00   4.446125507355e+00   4.139775753021e+00 
  3.130043268204e+00   4.468652725220e+00   3.022063255310e+00   4.037164688110e+00   4.424309730530e+00   5.015465736389e+00   5.451673984528e+00   5.594066619873e+00   5.612109184265e+00 
  5.502269744873e+00   5.373007774353e+00   0.000000000000e+00   0.000000000000e+00   4.182599544525e+00   4.211531639099e+00   4.288254261017e+00   4.400969028473e+00   4.453858852386e+00 
  4.596466064453e+00   4.365793704987e+00   3.805377483368e+00   2.960426092148e+00   3.704642534256e+00   3.893689155579e+00   3.847957849503e+00   4.684434413910e+00   5.087382316589e+00 
  5.308674812317e+00   5.476894378662e+00   5.480445861816e+00   5.469454765320e+00   0.000000000000e+00   0.000000000000e+00   3.887431859970e+00   3.947707891464e+00   4.020365715027e+00 
  4.058537006378e+00   4.260796070099e+00   5.082329750061e+00   5.363866329193e+00   4.552097797394e+00   3.945385456085e+00   4.304481029510e+00   3.520291566849e+00   5.468634605408e+00 
  4.066223144531e+00   4.785593986511e+00   5.087999820709e+00   5.198939800262e+00   5.277039051056e+00   5.332911491394e+00   0.000000000000e+00   0.000000000000e+00   3.514809608459e+00 
  3.499236106873e+00   3.590077400208e+00   3.829973936081e+00   4.271978855133e+00   5.235635757446e+00   6.340756893158e+00   5.342627048492e+00   4.319154262543e+00   3.911151409149e+00 
  3.903488159180e+00   3.612214803696e+00   4.339694976807e+00   4.788588047028e+00   5.098297119141e+00   5.284902095795e+00   5.288744926453e+00   5.204747676849e+00   0.000000000000e+00 
  0.000000000000e+00   2.787735700607e+00   2.859050273895e+00   3.010539054871e+00   3.266421079636e+00   3.687349796295e+00   4.209502220154e+00   4.753747940063e+00   4.252260208130e+00 
  3.833596706390e+00   3.871449232101e+00   4.068733692169e+00   4.163618564606e+00   4.505710124969e+00   4.716275215149e+00   4.911755561829e+00   5.029677867889e+00   5.098690509796e+00 
  5.084122657776e+00   0.000000000000e+00   0.000000000000e+00   1.816110610962e+00   1.853824734688e+00   2.062902450562e+00   2.640154600143e+00   3.160493373871e+00   3.293770313263e+00 
  3.670701026917e+00   3.657960653305e+00   3.630551338196e+00   3.809298038483e+00   3.987070798874e+00   4.259318828583e+00   4.535094738007e+00   4.759592056274e+00   4.822908878326e+00 
  4.902538776398e+00   4.996048927307e+00   5.091124534607e+00   0.000000000000e+00   0.000000000000e+00   7.928093910217e+00   8.669857978821e+00   9.331122398376e+00   1.893493533134e+00 
  2.693357944489e+00   2.444348812103e+00   2.957735538483e+00   2.894889354706e+00   2.902750015259e+00   3.653989076614e+00   3.971106529236e+00   4.150736331940e+00   4.357745647430e+00 
  4.727978706360e+00   4.708133697510e+00   4.790499687195e+00   4.821431159973e+00   5.061412334442e+00   0.000000000000e+00   0.000000000000e+00   0.000000000000e+00   0.000000000000e+00 
  0.000000000000e+00   0.000000000000e+00   0.000000000000e+00   0.000000000000e+00   0.000000000000e+00   0.000000000000e+00   0.000000000000e+00   0.000000000000e+00   0.000000000000e+00 
  0.000000000000e+00   0.000000000000e+00   0.000000000000e+00   0.000000000000e+00   0.000000000000e+00   0.000000000000e+00   0.000000000000e+00   0.000000000000e+00   0.000000000000e+00 
  0.000000000000e+00   0.000000000000e+00   0.000000000000e+00   0.000000000000e+00   0.000000000000e+00   0.000000000000e+00   0.000000000000e+00   0.000000000000e+00   0.000000000000e+00 
  0.000000000000e+00   0.000000000000e+00   0.000000000000e+00   0.000000000000e+00   0.000000000000e+00   0.000000000000e+00   0.000000000000e+00   0.000000000000e+00   0.000000000000e+00 
  0.000000000000e+00   0.000000000000e+00   5.856944561005e+00   5.891270160675e+00   5.867883205414e+00   5.888438224792e+00   5.877787590027e+00   5.859112739563e+00   5.844231128693e+00 
  5.839648723602e+00   5.856208324432e+00   5.920080661774e+00   6.006584167480e+00   6.117727756500e+00   6.165859699249e+00   6.230627536774e+00   6.198162078857e+00   6.232004165649e+00 
  6.236414432526e+00   6.303771495819e+00   0.000000000000e+00   0.000000000000e+00   5.779156208038e+00   5.771018028259e+00   5.808222770691e+00   5.783576965332e+00   5.767507076263e+00 
  5.735242366791e+00   5.756638050079e+00   5.778928756714e+00   5.804384231567e+00   5.828522682190e+00   5.930630683899e+00   5.989726543427e+00   6.086179256439e+00   6.064932823181e+00 
  6.106954574585e+00   6.156251430511e+00   6.185153007507e+00   6.259634971619e+00   0.000000000000e+00   0.000000000000e+00   5.562697887421e+00   5.601476669312e+00   5.608892440796e+00 
  5.648777008057e+00   5.665439128876e+00   5.678085327148e+00   5.785723686218e+00   5.672840118408e+00   5.685521602631e+00   5.758429050446e+00   5.826305866241e+00   5.931367874146e+00 
  5.956406116486e+00   6.010314464569e+00   6.058822154999e+00   6.094581127167e+00   6.090847969055e+00   6.166012763977e+00   0.000000000000e+00   0.000000000000e+00   5.330415725708e+00 
  5.351326465607e+00   5.366710662842e+00   5.333776950836e+00   5.434023857117e+00   5.454975605011e+00   5.611486911774e+00   5.466806411743e+00   5.502081871033e+00   5.563919067383e+00 
  5.669284343719e+00   5.784554958344e+00   5.894340991974e+00   5.929600238800e+00   5.990786075592e+00   5.993453025818e+00   5.976806640625e+00   6.045804500580e+00   0.000000000000e+00 
  0.000000000000e+00   5.116467475891e+00   5.132796287537e+00   5.160665035248e+00   5.102510929108e+00   5.034956455231e+00   5.098202705383e+00   5.159873485565e+00   5.286580085754e+00 
  5.324271678925e+00   5.425529003143e+00   5.533233165741e+00   5.645232200623e+00   5.816281795502e+00   5.931675434113e+00   5.958801746368e+00   5.943294525146e+00   5.907248973846e+00 
  5.957966327667e+00   0.000000000000e+00   0.000000000000e+00   4.872973918915e+00   4.891485214233e+00   4.893294334412e+00   4.893684387207e+00   4.900346279144e+00   4.977344512939e+00 
  5.054564952850e+00   5.066457748413e+00   5.112962722778e+00   5.216364860535e+00   5.347634792328e+00   5.443889617920e+00   5.565111160278e+00   5.816722869873e+00   5.903647899628e+00 
  5.835293292999e+00   5.779205799103e+00   5.886657714844e+00   0.000000000000e+00   0.000000000000e+00   4.613854408264e+00   4.592892646790e+00   4.603912830353e+00   4.554862499237e+00 
  4.527867794037e+00   4.571773052216e+00   4.581065177917e+00   4.656616687775e+00   4.696286201477e+00   4.828614711761e+00   5.014079570770e+00   5.236756801605e+00   5.443583488464e+00 
  5.748721122742e+00   5.673743247986e+00   5.885019302368e+00   5.927378654480e+00   5.831501483917e+00   0.000000000000e+00   0.000000000000e+00   4.387203216553e+00   4.344633579254e+00 
  4.351261615753e+00   4.350622177124e+00   4.374320507050e+00   4.362179756165e+00   4.334412097931e+00   4.337918758392e+00   4.422632694244e+00   4.618311405182e+00   4.812757968903e+00 
  5.109404087067e+00   5.784039974213e+00   7.144625663757e+00   5.892928600311e+00   5.353456497192e+00   5.073668479919e+00   5.070153713226e+00   0.000000000000e+00   0.000000000000e+00 
  4.107158660889e+00   4.069059848785e+00   4.013101577759e+00   3.933966398239e+00   3.945089817047e+00   3.886416435242e+00   3.882676601410e+00   3.878748655319e+00   3.909627914429e+00 
  4.083473205566e+00   4.416999340057e+00   5.003269672394e+00   6.416789054871e+00   8.490352630615e+00   6.227255821228e+00   5.181013107300e+00   4.989823341370e+00   4.915131568909e+00 
  0.000000000000e+00   0.000000000000e+00   3.867841720581e+00   3.809690952301e+00   3.745025157928e+00   3.715507745743e+00   3.709164619446e+00   3.688022375107e+00   3.602441072464e+00 
  3.529355049133e+00   3.510834217072e+00   3.755854129791e+00   4.141303062439e+00   4.558833599091e+00   5.265729904175e+00   5.986770153046e+00   5.358095169067e+00   4.945952892303e+00 
  4.716510772705e+00   4.599348068237e+00   0.000000000000e+00   0.000000000000e+00   3.594864130020e+00   3.594976902008e+00   3.577310800552e+00   3.560213565826e+00   3.608815431595e+00 
  3.557409286499e+00   3.452315092087e+00   3.177251815796e+00   2.971465110779e+00   3.286951065063e+00   3.689319849014e+00   4.104546546936e+00   4.439324855804e+00   4.814385890961e+00 
  4.791651725769e+00   4.684922695160e+00   4.558777809143e+00   4.494215488434e+00   0.000000000000e+00   0.000000000000e+00   3.382415294647e+00   3.397065877914e+00   3.371098279953e+00 
  3.369530916214e+00   3.416054487228e+00   3.376920461655e+00   3.221531391144e+00   2.848902702332e+00   2.240861892700e+00   2.809075832367e+00   3.289989709854e+00   3.686841011047e+00 
  4.103369712830e+00   4.381417751312e+00   4.558269977570e+00   4.531205177307e+00   4.409655570984e+00   4.304812431335e+00   0.000000000000e+00   0.000000000000e+00   3.170513868332e+00 
  3.180744647980e+00   3.275217056274e+00   3.321061849594e+00   3.343248844147e+00   3.388025999069e+00   3.310274839401e+00   3.012679100037e+00   2.685494661331e+00   2.927256107330e+00 
  3.189143180847e+00   3.487649917603e+00   3.816246032715e+00   4.103503227234e+00   4.308675765991e+00   4.414323329926e+00   4.425941944122e+00   4.518270015717e+00   0.000000000000e+00 
  0.000000000000e+00   2.957843065262e+00   2.984588861465e+00   3.055421352386e+00   3.114678382874e+00   3.209216833115e+00   3.518782854080e+00   3.762921571732e+00   3.495435476303e+00 
  3.183952569962e+00   3.095226287842e+00   3.092753648758e+00   2.959169387817e+00   3.661249637604e+00   3.907660722733e+00   4.166803836823e+00   4.224293708801e+00   4.292208194733e+00 
  4.632502079010e+00   0.000000000000e+00   0.000000000000e+00   2.606698513031e+00   2.646540641785e+00   2.719403743744e+00   2.893688440323e+00   3.185915946960e+00   3.712795972824e+00 
  4.280152320862e+00   3.938169717789e+00   3.604871988297e+00   3.065693855286e+00   3.100349426270e+00   3.213795661926e+00   3.536181926727e+00   3.856833219528e+00   4.106955051422e+00 
  4.278268337250e+00   4.270445346832e+00   4.205592632294e+00   0.000000000000e+00   0.000000000000e+00   2.050728321075e+00   2.104998826981e+00   2.239447832108e+00   2.403797388077e+00 
  2.601086139679e+00   2.920881271362e+00   3.238586664200e+00   2.884417295456e+00   2.770135402679e+00   2.909460306168e+00   3.128303766251e+00   3.364341497421e+00   3.615497589111e+00 
  3.804145812988e+00   3.940996646881e+00   4.058780670166e+00   4.135192871094e+00   4.180513381958e+00   0.000000000000e+00   0.000000000000e+00   1.393760204315e+00   1.451906681061e+00 
  1.603244781494e+00   1.877387166023e+00   2.048609495163e+00   2.073175191879e+00   2.501069307327e+00   2.648211479187e+00   2.297245979309e+00   2.720130443573e+00   3.118005514145e+00 
  3.351304769516e+00   3.579187154770e+00   3.712334394455e+00   3.825036048889e+00   3.875027894974e+00   4.006084442139e+00   4.009982585907e+00   0.000000000000e+00   0.000000000000e+00 
  4.757359921932e-01   6.029834747314e-01   7.509773969650e-01   1.227995276451e+00   1.211882591248e+00   6.085539817810e+00   1.575660705566e+00   1.716122865677e+00   6.044202804565e+00 
  2.137344837189e+00   2.977348566055e+00   3.233518123627e+00   3.413033246994e+00   3.612701654434e+00   3.708066225052e+00   3.721099138260e+00   3.779184341431e+00   3.817235708237e+00 
  0.000000000000e+00   0.000000000000e+00   0.000000000000e+00   0.000000000000e+00   0.000000000000e+00   0.000000000000e+00   0.000000000000e+00   0.000000000000e+00   0.000000000000e+00 
  0.000000000000e+00   0.000000000000e+00   0.000000000000e+00   0.000000000000e+00   0.000000000000e+00   0.000000000000e+00   0.000000000000e+00   0.000000000000e+00   0.000000000000e+00 
  0.000000000000e+00   0.000000000000e+00   0.000000000000e+00   0.000000000000e+00   0.000000000000e+00   0.000000000000e+00   0.000000000000e+00   0.000000000000e+00   0.000000000000e+00 
  0.000000000000e+00   0.000000000000e+00   0.000000000000e+00   0.000000000000e+00   0.000000000000e+00   0.000000000000e+00   0.000000000000e+00   0.000000000000e+00   0.000000000000e+00 
  0.000000000000e+00   0.000000000000e+00   0.000000000000e+00   0.000000000000e+00   0.000000000000e+00   0.000000000000e+00   4.936222076416e+00   4.936642646790e+00   4.974434852600e+00 
  4.976752281189e+00   5.013543605804e+00   5.003685474396e+00   4.986875057220e+00   4.939764976501e+00   4.950585842133e+00   4.966813087463e+00   5.054171562195e+00   5.070969104767e+00 
  5.172357559204e+00   5.195576667786e+00   5.213282585144e+00   5.254906654358e+00   5.269613742828e+00   5.324229240417e+00   0.000000000000e+00   0.000000000000e+00   4.817578315735e+00 
  4.860151290894e+00   4.833115100861e+00   4.884808063507e+00   4.881021499634e+00   4.854567527771e+00   4.841144084930e+00   4.886918544769e+00   4.906054973602e+00   4.966562747955e+00 
  4.967300415039e+00   5.043892860413e+00   5.072394847870e+00   5.105376720428e+00   5.112932682037e+00   5.168377876282e+00   5.182402133942e+00   5.281720638275e+00   0.000000000000e+00 
  0.000000000000e+00   4.598029613495e+00   4.598603248596e+00   4.651031017303e+00   4.668073654175e+00   4.837783336639e+00   4.886444568634e+00   4.787493228912e+00   4.741016864777e+00 
  4.814550876617e+00   4.846306800842e+00   4.887600898743e+00   4.918529987335e+00   4.973826885223e+00   4.971282958984e+00   5.027051925659e+00   5.081227302551e+00   5.101108074188e+00 
  5.156030178070e+00   0.000000000000e+00   0.000000000000e+00   4.346688747406e+00   4.396512508392e+00   4.438323497772e+00   4.339965820312e+00   4.370243072510e+00   4.479371547699e+00 
  4.374124526978e+00   4.511138916016e+00   4.599195957184e+00   4.629197597504e+00   4.701602935791e+00   4.781150341034e+00   4.809162139893e+00   4.846136569977e+00   4.836091041565e+00 
  4.953430175781e+00   4.928064346313e+00   5.002621650696e+00   0.000000000000e+00   0.000000000000e+00   4.112987995148e+00   4.180044651031e+00   4.164183139801e+00   4.055512905121e+00 
  3.900630950928e+00   4.123910427094e+00   4.094460487366e+00   4.235527515411e+00   4.242563247681e+00   4.398739337921e+00   4.529037952423e+00   4.553684711456e+00   4.674292564392e+00 
  4.662316322327e+00   4.789021968842e+00   4.717844009399e+00   4.818941116333e+00   4.877474308014e+00   0.000000000000e+00   0.000000000000e+00   3.825291156769e+00   3.870756149292e+00 
  3.890261888504e+00   3.863656997681e+00   3.689159154892e+00   3.845541715622e+00   3.911655187607e+00   3.947807788849e+00   4.007569313049e+00   4.093534946442e+00   4.172252655029e+00 
  4.257473468781e+00   4.331876754761e+00   4.511346817017e+00   4.522063255310e+00   4.797279357910e+00   4.725070953369e+00   4.804371356964e+00   0.000000000000e+00   0.000000000000e+00 