# vtk DataFile Version 2.0
Written using VisIt writer
ASCII
DATASET RECTILINEAR_GRID
DIMENSIONS 20 20 20
X_COORDINATES 20 float
  0.000000000000e+00   1.000000000000e+00   2.000000000000e+00   3.000000000000e+00   4.000000000000e+00   5.000000000000e+00   6.000000000000e+00   7.000000000000e+00   8.000000000000e+00 
  9.000000000000e+00   1.000000000000e+01   1.100000000000e+01   1.200000000000e+01   1.300000000000e+01   1.400000000000e+01   1.500000000000e+01   1.600000000000e+01   1.700000000000e+01 
  1.800000000000e+01   1.900000000000e+01 
Y_COORDINATES 20 float
  0.000000000000e+00   1.000000000000e+00   2.000000000000e+00   3.000000000000e+00   4.000000000000e+00   5.000000000000e+00   6.000000000000e+00   7.000000000000e+00   8.000000000000e+00 
  9.000000000000e+00   1.000000000000e+01   1.100000000000e+01   1.200000000000e+01   1.300000000000e+01   1.400000000000e+01   1.500000000000e+01   1.600000000000e+01   1.700000000000e+01 
  1.800000000000e+01   1.900000000000e+01 
Z_COORDINATES 20 float
  0.000000000000e+00   1.000000000000e+00   2.000000000000e+00   3.000000000000e+00   4.000000000000e+00   5.000000000000e+00   6.000000000000e+00   7.000000000000e+00   8.000000000000e+00 
  9.000000000000e+00   1.000000000000e+01   1.100000000000e+01   1.200000000000e+01   1.300000000000e+01   1.400000000000e+01   1.500000000000e+01   1.600000000000e+01   1.700000000000e+01 
  1.800000000000e+01   1.900000000000e+01 
CELL_DATA 6859
POINT_DATA 8000
SCALARS pressure float
LOOKUP_TABLE default
  0.000000000000e+00   0.000000000000e+00   0.000000000000e+00   0.000000000000e+00   0.000000000000e+00   0.000000000000e+00   0.000000000000e+00   0.000000000000e+00   0.000000000000e+00 
  0.000000000000e+00   0.000000000000e+00   0.000000000000e+00   0.000000000000e+00   0.000000000000e+00   0.000000000000e+00   0.000000000000e+00   0.000000000000e+00   0.000000000000e+00 
  0.000000000000e+00   0.000000000000e+00   0.000000000000e+00   0.000000000000e+00   0.000000000000e+00   0.000000000000e+00   0.000000000000e+00   0.000000000000e+00   0.000000000000e+00 
  0.000000000000e+00   0.000000000000e+00   0.000000000000e+00   0.000000000000e+00   0.000000000000e+00   0.000000000000e+00   0.000000000000e+00   0.000000000000e+00   0.000000000000e+00 
  0.000000000000e+00   0.000000000000e+00   0.000000000000e+00   0.000000000000e+00   0.000000000000e+00   0.000000000000e+00   0.000000000000e+00   0.000000000000e+00   0.000000000000e+00 
  0.000000000000e+00   0.000000000000e+00   0.000000000000e+00   0.000000000000e+00   0.000000000000e+00   0.000000000000e+00   0.000000000000e+00   0.000000000000e+00   0.000000000000e+00 
  0.000000000000e+00   0.000000000000e+00   0.000000000000e+00   0.000000000000e+00   0.000000000000e+00   0.000000000000e+00   0.000000000000e+00   0.000000000000e+00   0.000000000000e+00 
  0.000000000000e+00   0.000000000000e+00   0.000000000000e+00   0.000000000000e+00   0.000000000000e+00   0.000000000000e+00   0.000000000000e+00   0.000000000000e+00   0.000000000000e+00 
  0.000000000000e+00   0.000000000000e+00   0.000000000000e+00   0.000000000000e+00   0.000000000000e+00   0.000000000000e+00   0.000000000000e+00   0.000000000000e+00   0.000000000000e+00 
  0.000000000000e+00   0.000000000000e+00   0.000000000000e+00   0.000000000000e+00   0.000000000000e+00   0.000000000000e+00   0.000000000000e+00   0.000000000000e+00   0.000000000000e+00 
  0.000000000000e+00   0.000000000000e+00   0.000000000000e+00   0.000000000000e+00   0.000000000000e+00   0.000000000000e+00   0.000000000000e+00   0.000000000000e+00   0.000000000000e+00 
  0.000000000000e+00   0.000000000000e+00   0.000000000000e+00   0.000000000000e+00   0.000000000000e+00   0.000000000000e+00   0.000000000000e+00   0.000000000000e+00   0.000000000000e+00 
  0.000000000000e+00   0.000000000000e+00   0.000000000000e+00   0.000000000000e+00   0.000000000000e+00   0.000000000000e+00   0.000000000000e+00   0.000000000000e+00   0.000000000000e+00 
  0.000000000000e+00   0.000000000000e+00   0.000000000000e+00   0.000000000000e+00   0.000000000000e+00   0.000000000000e+00   0.000000000000e+00   0.000000000000e+00   0.000000000000e+00 
  0.000000000000e+00   0.000000000000e+00   0.000000000000e+00   0.000000000000e+00   0.000000000000e+00   0.000000000000e+00   0.000000000000e+00   0.000000000000e+00   0.000000000000e+00 
  0.000000000000e+00   0.000000000000e+00   0.000000000000e+00   0.000000000000e+00   0.000000000000e+00   0.000000000000e+00   0.000000000000e+00   0.000000000000e+00   0.000000000000e+00 
  0.000000000000e+00   0.000000000000e+00   0.000000000000e+00   0.000000000000e+00   0.000000000000e+00   0.000000000000e+00   0.000000000000e+00   0.000000000000e+00   0.000000000000e+00 
  0.000000000000e+00   0.000000000000e+00   0.000000000000e+00   0.000000000000e+00   0.000000000000e+00   0.000000000000e+00   0.000000000000e+00   0.000000000000e+00   0.000000000000e+00 
  0.000000000000e+00   0.000000000000e+00   0.000000000000e+00   0.000000000000e+00   0.000000000000e+00   0.000000000000e+00   0.000000000000e+00   0.000000000000e+00   0.000000000000e+00 
  0.000000000000e+00   0.000000000000e+00   0.000000000000e+00   0.000000000000e+00   0.000000000000e+00   0.000000000000e+00   0.000000000000e+00   0.000000000000e+00   0.000000000000e+00 
  0.000000000000e+00   0.000000000000e+00   0.000000000000e+00   0.000000000000e+00   0.000000000000e+00   0.000000000000e+00   0.000000000000e+00   0.000000000000e+00   0.000000000000e+00 
  0.000000000000e+00   0.000000000000e+00   0.000000000000e+00   0.000000000000e+00   0.000000000000e+00   0.000000000000e+00   0.000000000000e+00   0.000000000000e+00   0.000000000000e+00 
  0.000000000000e+00   0.000000000000e+00   0.000000000000e+00   0.000000000000e+00   0.000000000000e+00   0.000000000000e+00   0.000000000000e+00   0.000000000000e+00   0.000000000000e+00 
  0.000000000000e+00   0.000000000000e+00   0.000000000000e+00   0.000000000000e+00   0.000000000000e+00   0.000000000000e+00   0.000000000000e+00   0.000000000000e+00   0.000000000000e+00 
  0.000000000000e+00   0.000000000000e+00   0.000000000000e+00   0.000000000000e+00   0.000000000000e+00   0.000000000000e+00   0.000000000000e+00   0.000000000000e+00   0.000000000000e+00 
  0.000000000000e+00   0.000000000000e+00   0.000000000000e+00   0.000000000000e+00   0.000000000000e+00   0.000000000000e+00   0.000000000000e+00   0.000000000000e+00   0.000000000000e+00 
  0.000000000000e+00   0.000000000000e+00   0.000000000000e+00   0.000000000000e+00   0.000000000000e+00   0.000000000000e+00   0.000000000000e+00   0.000000000000e+00   0.000000000000e+00 
  0.000000000000e+00   0.000000000000e+00   0.000000000000e+00   0.000000000000e+00   0.000000000000e+00   0.000000000000e+00   0.000000000000e+00   0.000000000000e+00   0.000000000000e+00 
  0.000000000000e+00   0.000000000000e+00   0.000000000000e+00   0.000000000000e+00   0.000000000000e+00   0.000000000000e+00   0.000000000000e+00   0.000000000000e+00   0.000000000000e+00 
  0.000000000000e+00   0.000000000000e+00   0.000000000000e+00   0.000000000000e+00   0.000000000000e+00   0.000000000000e+00   0.000000000000e+00   0.000000000000e+00   0.000000000000e+00 
  0.000000000000e+00   0.000000000000e+00   0.000000000000e+00   0.000000000000e+00   0.000000000000e+00   0.000000000000e+00   0.000000000000e+00   0.000000000000e+00   0.000000000000e+00 
  0.000000000000e+00   0.000000000000e+00   0.000000000000e+00   0.000000000000e+00   0.000000000000e+00   0.000000000000e+00   0.000000000000e+00   0.000000000000e+00   0.000000000000e+00 
  0.000000000000e+00   0.000000000000e+00   0.000000000000e+00   0.000000000000e+00   0.000000000000e+00   0.000000000000e+00   0.000000000000e+00   0.000000000000e+00   0.000000000000e+00 
  0.000000000000e+00   0.000000000000e+00   0.000000000000e+00   0.000000000000e+00   0.000000000000e+00   0.000000000000e+00   0.000000000000e+00   0.000000000000e+00   0.000000000000e+00 
  0.000000000000e+00   0.000000000000e+00   0.000000000000e+00   0.000000000000e+00   0.000000000000e+00   0.000000000000e+00   0.000000000000e+00   0.000000000000e+00   0.000000000000e+00 
  0.000000000000e+00   0.000000000000e+00   0.000000000000e+00   0.000000000000e+00   0.000000000000e+00   0.000000000000e+00   0.000000000000e+00   0.000000000000e+00   0.000000000000e+00 
  0.000000000000e+00   0.000000000000e+00   0.000000000000e+00   0.000000000000e+00   0.000000000000e+00   0.000000000000e+00   0.000000000000e+00   0.000000000000e+00   0.000000000000e+00 
  0.000000000000e+00   0.000000000000e+00   0.000000000000e+00   0.000000000000e+00   0.000000000000e+00   0.000000000000e+00   0.000000000000e+00   0.000000000000e+00   0.000000000000e+00 
  0.000000000000e+00   0.000000000000e+00   0.000000000000e+00   0.000000000000e+00   0.000000000000e+00   0.000000000000e+00   0.000000000000e+00   0.000000000000e+00   0.000000000000e+00 
  0.000000000000e+00   0.000000000000e+00   0.000000000000e+00   0.000000000000e+00   0.000000000000e+00   0.000000000000e+00   0.000000000000e+00   0.000000000000e+00   0.000000000000e+00 
  0.000000000000e+00   0.000000000000e+00   0.000000000000e+00   0.000000000000e+00   0.000000000000e+00   0.000000000000e+00   0.000000000000e+00   0.000000000000e+00   0.000000000000e+00 
  0.000000000000e+00   0.000000000000e+00   0.000000000000e+00   0.000000000000e+00   0.000000000000e+00   0.000000000000e+00   0.000000000000e+00   0.000000000000e+00   0.000000000000e+00 
  0.000000000000e+00   0.000000000000e+00   0.000000000000e+00   0.000000000000e+00   0.000000000000e+00   0.000000000000e+00   0.000000000000e+00   0.000000000000e+00   0.000000000000e+00 
  0.000000000000e+00   0.000000000000e+00   0.000000000000e+00   0.000000000000e+00   0.000000000000e+00   0.000000000000e+00   0.000000000000e+00   0.000000000000e+00   0.000000000000e+00 
  0.000000000000e+00   0.000000000000e+00   0.000000000000e+00   0.000000000000e+00   0.000000000000e+00   0.000000000000e+00   0.000000000000e+00   0.000000000000e+00   0.000000000000e+00 
  0.000000000000e+00   0.000000000000e+00   0.000000000000e+00   0.000000000000e+00   0.000000000000e+00   0.000000000000e+00   0.000000000000e+00   0.000000000000e+00   0.000000000000e+00 
  0.000000000000e+00   0.000000000000e+00   0.000000000000e+00   0.000000000000e+00   0.000000000000e+00   0.000000000000e+00   0.000000000000e+00   4.133583068848e+00   4.199980735779e+00 
  4.219134807587e+00   4.217369556427e+00   4.225496768951e+00   4.226263523102e+00   4.248486518860e+00   4.266983985901e+00   4.334304332733e+00   4.354023456573e+00   4.444017410278e+00 
  4.519199848175e+00   4.529962062836e+00   4.527821063995e+00   4.527702331543e+00   4.549101352692e+00   4.558444023132e+00   4.637362003326e+00   0.000000000000e+00   0.000000000000e+00 
  4.108968257904e+00   4.150066375732e+00   4.202382087708e+00   4.237039566040e+00   4.257258415222e+00   4.257946968079e+00   4.251016616821e+00   4.251400470734e+00   4.284027576447e+00 
  4.359901428223e+00   4.455750942230e+00   4.544018268585e+00   4.585472583771e+00   4.595198631287e+00   4.599411010742e+00   4.625097274780e+00   4.646574497223e+00   4.724066734314e+00 
  0.000000000000e+00   0.000000000000e+00   4.020957469940e+00   4.064469337463e+00   4.119865417480e+00   4.202324390411e+00   4.288496971130e+00   4.317924499512e+00   4.278507232666e+00 
  4.254134654999e+00   4.274277210236e+00   4.350549221039e+00   4.446307659149e+00   4.528590202332e+00   4.594610691071e+00   4.627421855927e+00   4.655247688293e+00   4.708790302277e+00 
  4.738128662109e+00   4.833996772766e+00   0.000000000000e+00   0.000000000000e+00   3.946406602859e+00   3.991422176361e+00   4.072358131409e+00   4.159814834595e+00   4.287300109863e+00 
  4.362035274506e+00   4.335986614227e+00   4.284477233887e+00   4.309810161591e+00   4.342700958252e+00   4.463209152222e+00   4.760439395905e+00   4.887847423553e+00   4.764331340790e+00 
  4.826404094696e+00   4.893553733826e+00   4.955880165100e+00   5.044969081879e+00   0.000000000000e+00   0.000000000000e+00   3.961570739746e+00   4.007133960724e+00   4.096574783325e+00 
  4.254472255707e+00   4.450829029083e+00   4.537196159363e+00   4.497383594513e+00   4.437549114227e+00   4.414844989777e+00   4.491088867188e+00   4.757927417755e+00   5.432447910309e+00 
  5.631595611572e+00   5.149112224579e+00   5.032913208008e+00   5.129137992859e+00   5.195137500763e+00   5.286455631256e+00   0.000000000000e+00   0.000000000000e+00   3.907793760300e+00 
  3.941385030746e+00   4.000120639801e+00   4.172702789307e+00   4.481752872467e+00   4.582906246185e+00   4.414254665375e+00   4.417816638947e+00   4.537642002106e+00   4.683714866638e+00 
  4.839325904846e+00   5.109501838684e+00   5.301062107086e+00   5.293421268463e+00   5.366272449493e+00   5.452366828918e+00   5.511942386627e+00   5.616320133209e+00   0.000000000000e+00 
  0.000000000000e+00   3.983716249466e+00   3.933352947235e+00   3.873748302460e+00   4.237926006317e+00   4.686882019043e+00   4.881010055542e+00   4.396558761597e+00   4.457217216492e+00 
  4.653255939484e+00   4.769049644470e+00   4.915657520294e+00   5.076473712921e+00   5.252561569214e+00   5.415430545807e+00   5.581097602844e+00   5.664109706879e+00   5.697834014893e+00 
  5.788990974426e+00   0.000000000000e+00   0.000000000000e+00   4.186716556549e+00   4.059618473053e+00   3.745864868164e+00   4.487206935883e+00   5.199564933777e+00   5.572856903076e+00 
  4.120541095734e+00   4.511816978455e+00   4.886634826660e+00   5.114793300629e+00   5.328748226166e+00   5.582183837891e+00   5.833000183105e+00   6.010822296143e+00   6.149040699005e+00 
  6.246202945709e+00   6.274850845337e+00   6.355009555817e+00   0.000000000000e+00   0.000000000000e+00   4.371204376221e+00   4.224892139435e+00   4.056990623474e+00   4.420654773712e+00 
  4.983317852020e+00   5.264729499817e+00   4.822505950928e+00   4.917229652405e+00   5.137733936310e+00   5.347651958466e+00   5.629655838013e+00   5.806462764740e+00   6.120700359344e+00 
  6.439417839050e+00   6.528489112854e+00   6.616635799408e+00   6.649713516235e+00   6.728266239166e+00   0.000000000000e+00   0.000000000000e+00   4.729599952698e+00   4.411145210266e+00 
  4.040975570679e+00   4.411819934845e+00   5.194425106049e+00   5.498077869415e+00   5.453832626343e+00   5.551594734192e+00   5.671533584595e+00   5.783749103546e+00   6.213328838348e+00 
  6.510370254517e+00   6.943530082703e+00   7.371576309204e+00   7.532021522522e+00   7.613507747650e+00   7.636806488037e+00   7.739533424377e+00   0.000000000000e+00   0.000000000000e+00 
  5.021667957306e+00   4.535395145416e+00   3.684902906418e+00   3.992862939835e+00   5.250411033630e+00   5.596532821655e+00   5.782907009125e+00   5.938002109528e+00   5.942998886108e+00 
  5.916636466980e+00   6.121691226959e+00   6.547707557678e+00   7.225446224213e+00   7.779842853546e+00   8.060157775879e+00   8.066197395325e+00   8.046959877014e+00   8.223233222961e+00 
  0.000000000000e+00   0.000000000000e+00   5.558963775635e+00   5.196598529816e+00   4.701084136963e+00   4.643380641937e+00   5.166200637817e+00   5.862711906433e+00   6.351053714752e+00 
  6.597370624542e+00   6.718919277191e+00   6.575659751892e+00   6.781590461731e+00   7.613783836365e+00   8.497357368469e+00   9.921119689941e+00   1.003481483459e+01   9.499705314636e+00 
  9.207480430603e+00   9.995772361755e+00   0.000000000000e+00   0.000000000000e+00   6.026426792145e+00   5.821732521057e+00   5.368046283722e+00   4.695082187653e+00   4.781476497650e+00 
  5.980682849884e+00   6.897229671478e+00   7.476751804352e+00   7.687390327454e+00   6.685053825378e+00   6.995997905731e+00   8.578001976013e+00   9.470071792603e+00   1.203008842468e+01 
  1.198762035370e+01   1.078381156921e+01   1.001396846771e+01   1.140417957306e+01   0.000000000000e+00   0.000000000000e+00   6.412158012390e+00   6.404838085175e+00   6.162756443024e+00 
  4.772764682770e+00   4.536045551300e+00   5.184855937958e+00   7.511167526245e+00   9.455688476562e+00   8.955203056335e+00   6.145074367523e+00   5.754849433899e+00   6.225986003876e+00 
  6.284385204315e+00   8.779082298279e+00   9.276822090149e+00   8.710031509399e+00   8.039384841919e+00   9.194617271423e+00   0.000000000000e+00   0.000000000000e+00   6.640340805054e+00 
  6.497594833374e+00   6.227323532104e+00   5.675213813782e+00   5.590635776520e+00   6.029642105103e+00   7.163254261017e+00   8.105993270874e+00   7.814796924591e+00   6.596280097961e+00 
  6.272352218628e+00   6.377837657928e+00   6.583771228790e+00   7.549604892731e+00   7.961433410645e+00   7.752045631409e+00   7.543606281281e+00   7.578052043915e+00   0.000000000000e+00 
  0.000000000000e+00   6.651834964752e+00   6.679907321930e+00   6.579804420471e+00   6.312743186951e+00   6.294559001923e+00   6.585767269135e+00   7.114738464355e+00   7.469931602478e+00 
  7.342132091522e+00   6.838257312775e+00   6.577980041504e+00   6.597022533417e+00   6.725851058960e+00   7.068682670593e+00   7.310186386108e+00   7.350378513336e+00   7.298774242401e+00 
  7.323232173920e+00   0.000000000000e+00   0.000000000000e+00   7.154040813446e+00   7.094148635864e+00   6.906731605530e+00   6.846959114075e+00   6.933000564575e+00   7.167102813721e+00 
  7.528295516968e+00   7.694788932800e+00   7.692240238190e+00   7.485123634338e+00   7.253732681274e+00   7.208165168762e+00   7.201161861420e+00   7.243454456329e+00   7.298184394836e+00 
  7.329904079437e+00   7.432693004608e+00   7.546953678131e+00   0.000000000000e+00   0.000000000000e+00   6.934535980225e+00   6.665445327759e+00   6.688652038574e+00   6.620038509369e+00 
  6.561611175537e+00   6.590228080750e+00   6.595872402191e+00   6.696059226990e+00   6.624458789825e+00   6.536231517792e+00   6.526307106018e+00   6.472970485687e+00   6.535859584808e+00 
  6.718304157257e+00   6.855653285980e+00   6.889941215515e+00   6.746307849884e+00   6.685249805450e+00   0.000000000000e+00   0.000000000000e+00   0.000000000000e+00   0.000000000000e+00 
  0.000000000000e+00   0.000000000000e+00   0.000000000000e+00   0.000000000000e+00   0.000000000000e+00   0.000000000000e+00   0.000000000000e+00   0.000000000000e+00   0.000000000000e+00 
  0.000000000000e+00   0.000000000000e+00   0.000000000000e+00   0.000000000000e+00   0.000000000000e+00   0.000000000000e+00   0.000000000000e+00   0.000000000000e+00   0.000000000000e+00 
  0.000000000000e+00   0.000000000000e+00   0.000000000000e+00   0.000000000000e+00   0.000000000000e+00   0.000000000000e+00   0.000000000000e+00   0.000000000000e+00   0.000000000000e+00 
  0.000000000000e+00   0.000000000000e+00   0.000000000000e+00   0.000000000000e+00   0.000000000000e+00   0.000000000000e+00   0.000000000000e+00   0.000000000000e+00   0.000000000000e+00 
  0.000000000000e+00   0.000000000000e+00   3.050786733627e+00   3.184615373611e+00   3.242891311646e+00   3.217862367630e+00   3.195041179657e+00   3.183993577957e+00   3.167840719223e+00 
  3.182414531708e+00   3.220156669617e+00   3.302279472351e+00   3.415010213852e+00   3.498434543610e+00   3.406302690506e+00   3.372644662857e+00   3.346884012222e+00   3.358635663986e+00 
  3.375387668610e+00   3.452772378922e+00   0.000000000000e+00   0.000000000000e+00   3.034446477890e+00   3.097225189209e+00   3.182461023331e+00   3.209490776062e+00   3.205435037613e+00 
  3.183182716370e+00   3.131737709045e+00   3.167282581329e+00   3.149240016937e+00   3.285852432251e+00   3.390886783600e+00   3.473361492157e+00   3.464673519135e+00   3.465834617615e+00 
  3.466866970062e+00   3.483335256577e+00   3.509491205215e+00   3.595484495163e+00   0.000000000000e+00   0.000000000000e+00   2.997411251068e+00   3.077250957489e+00   3.151036977768e+00 
  3.201413154602e+00   3.255986452103e+00   3.266820192337e+00   3.208054780960e+00   3.081309556961e+00   3.129760026932e+00   3.241898298264e+00   3.379091978073e+00   3.474310874939e+00 
  3.531429767609e+00   3.586943387985e+00   3.605256557465e+00   3.667191982269e+00   3.725921630859e+00   3.881637573242e+00   0.000000000000e+00   0.000000000000e+00   2.857309341431e+00 
  2.925047874451e+00   3.004540205002e+00   3.118474721909e+00   3.293082475662e+00   3.485481977463e+00   3.369585990906e+00   3.192206382751e+00   3.184113264084e+00   3.185929536819e+00 
  3.307307720184e+00   3.459475994110e+00   3.550034999847e+00   3.577191591263e+00   3.684789896011e+00   3.760055780411e+00   3.828729867935e+00   3.958804607391e+00   0.000000000000e+00 
  0.000000000000e+00   2.729974985123e+00   2.837227344513e+00   2.947519063950e+00   3.077063322067e+00   3.386950016022e+00   3.793152570724e+00   3.688256740570e+00   3.331962108612e+00 
  3.173882007599e+00   3.252611160278e+00   3.437840938568e+00   3.729554176331e+00   3.876006841660e+00   3.823985576630e+00   3.887923955917e+00   3.990247488022e+00   4.063768386841e+00 
  4.215045452118e+00   0.000000000000e+00   0.000000000000e+00   2.686063528061e+00   2.865474462509e+00   2.901808023453e+00   2.860172510147e+00   3.452787876129e+00   3.592505216599e+00 
  3.297143220901e+00   3.399976253510e+00   3.473119497299e+00   3.497874498367e+00   3.609221935272e+00   3.787807941437e+00   4.047607898712e+00   4.146233081818e+00   4.251544475555e+00 
  4.329133510590e+00   4.413569927216e+00   4.643559455872e+00   0.000000000000e+00   0.000000000000e+00   2.858217000961e+00   2.769075632095e+00   2.512119531631e+00   3.093789339066e+00 
  3.823381662369e+00   4.331290721893e+00   2.994395017624e+00   3.260415554047e+00   3.529406547546e+00   3.659322738647e+00   3.881150484085e+00   4.036660194397e+00   4.199569225311e+00 
  4.396213531494e+00   4.579846858978e+00   4.647849082947e+00   4.738608360291e+00   4.883830070496e+00   0.000000000000e+00   0.000000000000e+00   3.230930805206e+00   2.816600084305e+00 
  4.434422492981e+00   3.246233224869e+00   4.569598674774e+00   5.213574886322e+00   3.126208543777e+00   3.090211391449e+00   3.820280551910e+00   4.016360759735e+00   4.319530487061e+00 
  4.553492546082e+00   4.700371265411e+00   4.861306667328e+00   5.006978988647e+00   5.060499191284e+00   5.126827239990e+00   5.226962089539e+00   0.000000000000e+00   0.000000000000e+00 
  3.561367511749e+00   3.330163717270e+00   2.802937269211e+00   3.435343742371e+00   4.294631958008e+00   4.640454769135e+00   3.484349727631e+00   3.840158462524e+00   4.201037883759e+00 
  4.410537242889e+00   4.654189109802e+00   4.956906795502e+00   5.275239467621e+00   5.593959331512e+00   5.678145885468e+00   5.672693729401e+00   5.676211833954e+00   5.802168846130e+00 
  0.000000000000e+00   0.000000000000e+00   4.010107040405e+00   3.518617630005e+00   2.727399826050e+00   3.174688100815e+00   4.461892604828e+00   4.620810031891e+00   4.451819896698e+00 
  4.498145103455e+00   4.604496479034e+00   4.643091678619e+00   4.898419857025e+00   5.295167446136e+00   5.845941543579e+00   6.225485324860e+00   6.387403011322e+00   6.367035865784e+00 
  6.366812705994e+00   6.468165874481e+00   0.000000000000e+00   0.000000000000e+00   4.361420154572e+00   3.440850019455e+00   2.203633069992e+00   5.988228797913e+00   4.168252944946e+00 
  4.699949741364e+00   4.789463520050e+00   4.917194843292e+00   4.839971065521e+00   4.778841972351e+00   4.984137058258e+00   5.414383888245e+00   5.871144771576e+00   6.332411766052e+00 
  6.649918556213e+00   6.696827888489e+00   6.718096256256e+00   6.933388233185e+00   0.000000000000e+00   0.000000000000e+00   4.934079170227e+00   4.378919601440e+00   3.398218154907e+00 
  3.242754936218e+00   4.046707153320e+00   4.593113899231e+00   5.179609775543e+00   5.526466846466e+00   5.378138542175e+00   4.967413902283e+00   4.918980121613e+00   5.325217247009e+00 
  6.088329792023e+00   7.343809127808e+00   7.666620254517e+00   7.384361743927e+00   7.174412250519e+00   7.716176986694e+00   0.000000000000e+00   0.000000000000e+00   5.301125526428e+00 
  5.078591823578e+00   4.563158512115e+00   3.366259336472e+00   3.354272365570e+00   4.042160034180e+00   5.765167713165e+00   7.301308155060e+00   6.930189132690e+00   4.520365715027e+00 
  4.478734970093e+00   5.234324455261e+00   5.527014732361e+00   7.754742622375e+00   8.176910400391e+00   7.648642539978e+00   6.974005222321e+00   7.914657592773e+00   0.000000000000e+00 
  0.000000000000e+00   5.614419937134e+00   5.714543819427e+00   5.212096691132e+00   7.410613536835e+00   7.694591045380e+00   7.734717845917e+00   6.711936473846e+00   1.021296787262e+01 
  9.033551216125e+00   4.000563144684e+00   3.573943614960e+00   3.683199167252e+00   5.709802150726e+00   5.649738788605e+00   6.851084709167e+00   6.564612865448e+00   3.274635076523e+00 
  6.797575950623e+00   0.000000000000e+00   0.000000000000e+00   5.741759300232e+00   5.618756294250e+00   5.360545158386e+00   4.245956897736e+00   4.105799674988e+00   4.517532825470e+00 
  6.240498542786e+00   7.665313243866e+00   7.218123912811e+00   4.860024452209e+00   4.612377166748e+00   4.869866371155e+00   4.544599056244e+00   5.868288993835e+00   6.392435550690e+00 
  6.319590568542e+00   5.821335315704e+00   6.139179229736e+00   0.000000000000e+00   0.000000000000e+00   5.790696620941e+00   5.786841869354e+00   5.678900718689e+00   5.333295345306e+00 
  5.283731937408e+00   5.568842887878e+00   6.182574272156e+00   6.622409343719e+00   6.449601650238e+00   5.774209499359e+00   5.498680591583e+00   5.490943908691e+00   5.525445938110e+00 
  5.899635791779e+00   6.138020992279e+00   6.147535324097e+00   6.039813041687e+00   6.067432880402e+00   0.000000000000e+00   0.000000000000e+00   6.257028579712e+00   6.117027759552e+00 
  5.972175598145e+00   5.917624950409e+00   6.004284381866e+00   6.234899997711e+00   6.568355083466e+00   6.793655872345e+00   6.714701652527e+00   6.462327003479e+00   6.238549232483e+00 
  6.157977581024e+00   6.118549346924e+00   6.172897338867e+00   6.219497203827e+00   6.227589607239e+00   6.257197380066e+00   6.319340229034e+00   0.000000000000e+00   0.000000000000e+00 
  5.649843215942e+00   5.732153415680e+00   5.779524326324e+00   5.701464653015e+00   5.641115665436e+00   5.654047489166e+00   5.704914569855e+00   5.734275341034e+00   5.720443725586e+00 
  5.634951591492e+00   5.614573955536e+00   5.588657379150e+00   5.659721374512e+00   5.787751197815e+00   5.910029888153e+00   5.950620174408e+00   5.872089385986e+00   5.847824096680e+00 
  0.000000000000e+00   0.000000000000e+00   0.000000000000e+00   0.000000000000e+00   0.000000000000e+00   0.000000000000e+00   0.000000000000e+00   0.000000000000e+00   0.000000000000e+00 
  0.000000000000e+00   0.000000000000e+00   0.000000000000e+00   0.000000000000e+00   0.000000000000e+00   0.000000000000e+00   0.000000000000e+00   0.000000000000e+00   0.000000000000e+00 
  0.000000000000e+00   0.000000000000e+00   0.000000000000e+00   0.000000000000e+00   0.000000000000e+00   0.000000000000e+00   0.000000000000e+00   0.000000000000e+00   0.000000000000e+00 
  0.000000000000e+00   0.000000000000e+00   0.000000000000e+00   0.000000000000e+00   0.000000000000e+00   0.000000000000e+00   0.000000000000e+00   0.000000000000e+00   0.000000000000e+00 
  0.000000000000e+00   0.000000000000e+00   0.000000000000e+00   0.000000000000e+00   0.000000000000e+00   0.000000000000e+00   2.109120130539e+00   2.420813560486e+00   2.305306196213e+00 
  2.193648815155e+00   2.142615795135e+00   2.063685894012e+00   2.085275888443e+00   2.271758556366e+00   2.190703868866e+00   2.215061903000e+00   2.406318426132e+00   2.624603271484e+00 
  2.198101520538e+00   2.068681240082e+00   2.064116239548e+00   2.136915445328e+00   2.151854991913e+00   2.268182039261e+00   0.000000000000e+00   0.000000000000e+00   2.202239036560e+00 
  2.200273275375e+00   2.131921291351e+00   2.145904779434e+00   2.140464544296e+00   2.118525743484e+00   1.986646056175e+00   2.014878034592e+00   1.985649466515e+00   2.133694410324e+00 
  2.247320890427e+00   2.383159160614e+00   2.265066623688e+00   2.239404678345e+00   2.254780292511e+00   2.331840753555e+00   2.369968175888e+00   2.548238754272e+00   0.000000000000e+00 
  0.000000000000e+00   1.921797037125e+00   1.964413762093e+00   2.076394319534e+00   2.155397415161e+00   2.180403232574e+00   2.176807880402e+00   2.003808736801e+00   1.824060797691e+00 
  1.833250761032e+00   2.088421583176e+00   2.239859819412e+00   2.319863319397e+00   2.357819318771e+00   2.511269807816e+00   2.475933313370e+00   2.493246555328e+00   2.606239795685e+00 
  2.969198703766e+00   0.000000000000e+00   0.000000000000e+00   1.858726978302e+00   1.935366392136e+00   1.987226486206e+00   2.083226442337e+00   2.292101383209e+00   2.565392494202e+00 
  2.508007049561e+00   2.158424139023e+00   1.926273107529e+00   2.152483701706e+00   2.228903293610e+00   2.341936826706e+00   2.395289182663e+00   2.473429918289e+00   2.555426120758e+00 
  2.644331932068e+00   2.718507528305e+00   2.924281597137e+00   0.000000000000e+00   0.000000000000e+00   1.518199443817e+00   1.718308329582e+00   2.017686367035e+00   1.785599350929e+00 
  2.401762962341e+00   3.426559209824e+00   3.495733976364e+00   2.448493003845e+00   2.098581790924e+00   2.131952524185e+00   2.245730876923e+00   2.392303228378e+00   2.669324874878e+00 
  2.735395193100e+00   2.820495843887e+00   2.865785598755e+00   2.950994014740e+00   3.222987651825e+00   0.000000000000e+00   0.000000000000e+00   1.354694128036e+00   1.699893951416e+00 
  2.171775579453e+00   3.556448221207e+00   2.276650190353e+00   2.588565587997e+00   2.374088525772e+00   2.329164505005e+00   2.137240171432e+00   2.083858013153e+00   2.219633102417e+00 
  2.547554254532e+00   3.198019266129e+00   3.265212297440e+00   3.302769899368e+00   3.268576622009e+00   3.433009624481e+00   3.942244768143e+00   0.000000000000e+00   0.000000000000e+00 