# vtk DataFile Version 2.0
Written using VisIt writer
ASCII
DATASET RECTILINEAR_GRID
DIMENSIONS 20 20 20
X_COORDINATES 20 float
  0.000000000000e+00   1.000000000000e+00   2.000000000000e+00   3.000000000000e+00   4.000000000000e+00   5.000000000000e+00   6.000000000000e+00   7.000000000000e+00   8.000000000000e+00 
  9.000000000000e+00   1.000000000000e+01   1.100000000000e+01   1.200000000000e+01   1.300000000000e+01   1.400000000000e+01   1.500000000000e+01   1.600000000000e+01   1.700000000000e+01 
  1.800000000000e+01   1.900000000000e+01 
Y_COORDINATES 20 float
  0.000000000000e+00   1.000000000000e+00   2.000000000000e+00   3.000000000000e+00   4.000000000000e+00   5.000000000000e+00   6.000000000000e+00   7.000000000000e+00   8.000000000000e+00 
  9.000000000000e+00   1.000000000000e+01   1.100000000000e+01   1.200000000000e+01   1.300000000000e+01   1.400000000000e+01   1.500000000000e+01   1.600000000000e+01   1.700000000000e+01 
  1.800000000000e+01   1.900000000000e+01 
Z_COORDINATES 20 float
  0.000000000000e+00   1.000000000000e+00   2.000000000000e+00   3.000000000000e+00   4.000000000000e+00   5.000000000000e+00   6.000000000000e+00   7.000000000000e+00   8.000000000000e+00 
  9.000000000000e+00   1.000000000000e+01   1.100000000000e+01   1.200000000000e+01   1.300000000000e+01   1.400000000000e+01   1.500000000000e+01   1.600000000000e+01   1.700000000000e+01 
  1.800000000000e+01   1.900000000000e+01 
CELL_DATA 6859
POINT_DATA 8000
SCALARS pressure float
LOOKUP_TABLE default
  0.000000000000e+00   0.000000000000e+00   0.000000000000e+00   0.000000000000e+00   0.000000000000e+00   0.000000000000e+00   0.000000000000e+00   0.000000000000e+00   0.000000000000e+00 
  0.000000000000e+00   0.000000000000e+00   0.000000000000e+00   0.000000000000e+00   0.000000000000e+00   0.000000000000e+00   0.000000000000e+00   0.000000000000e+00   0.000000000000e+00 
  0.000000000000e+00   0.000000000000e+00   0.000000000000e+00   0.000000000000e+00   0.000000000000e+00   0.000000000000e+00   0.000000000000e+00   0.000000000000e+00   0.000000000000e+00 
  0.000000000000e+00   0.000000000000e+00   0.000000000000e+00   0.000000000000e+00   0.000000000000e+00   0.000000000000e+00   0.000000000000e+00   0.000000000000e+00   0.000000000000e+00 
  0.000000000000e+00   0.000000000000e+00   0.000000000000e+00   0.000000000000e+00   0.000000000000e+00   0.000000000000e+00   0.000000000000e+00   0.000000000000e+00   0.000000000000e+00 
  0.000000000000e+00   0.000000000000e+00   0.000000000000e+00   0.000000000000e+00   0.000000000000e+00   0.000000000000e+00   0.000000000000e+00   0.000000000000e+00   0.000000000000e+00 
  0.000000000000e+00   0.000000000000e+00   0.000000000000e+00   0.000000000000e+00   0.000000000000e+00   0.000000000000e+00   0.000000000000e+00   0.000000000000e+00   0.000000000000e+00 
  0.000000000000e+00   0.000000000000e+00   0.000000000000e+00   0.000000000000e+00   0.000000000000e+00   0.000000000000e+00   0.000000000000e+00   0.000000000000e+00   0.000000000000e+00 
  0.000000000000e+00   0.000000000000e+00   0.000000000000e+00   0.000000000000e+00   0.000000000000e+00   0.000000000000e+00   0.000000000000e+00   0.000000000000e+00   0.000000000000e+00 
  0.000000000000e+00   0.000000000000e+00   0.000000000000e+00   0.000000000000e+00   0.000000000000e+00   0.000000000000e+00   0.000000000000e+00   0.000000000000e+00   0.000000000000e+00 
  0.000000000000e+00   0.000000000000e+00   0.000000000000e+00   0.000000000000e+00   0.000000000000e+00   0.000000000000e+00   0.000000000000e+00   0.000000000000e+00   0.000000000000e+00 
  0.000000000000e+00   0.000000000000e+00   0.000000000000e+00   0.000000000000e+00   0.000000000000e+00   0.000000000000e+00   0.000000000000e+00   0.000000000000e+00   0.000000000000e+00 
  0.000000000000e+00   0.000000000000e+00   0.000000000000e+00   0.000000000000e+00   0.000000000000e+00   0.000000000000e+00   0.000000000000e+00   0.000000000000e+00   0.000000000000e+00 
  0.000000000000e+00   0.000000000000e+00   0.000000000000e+00   0.000000000000e+00   0.000000000000e+00   0.000000000000e+00   0.000000000000e+00   0.000000000000e+00   0.000000000000e+00 
  0.000000000000e+00   0.000000000000e+00   0.000000000000e+00   0.000000000000e+00   0.000000000000e+00   0.000000000000e+00   0.000000000000e+00   0.000000000000e+00   0.000000000000e+00 
  0.000000000000e+00   0.000000000000e+00   0.000000000000e+00   0.000000000000e+00   0.000000000000e+00   0.000000000000e+00   0.000000000000e+00   0.000000000000e+00   0.000000000000e+00 
  0.000000000000e+00   0.000000000000e+00   0.000000000000e+00   0.000000000000e+00   0.000000000000e+00   0.000000000000e+00   0.000000000000e+00   0.000000000000e+00   0.000000000000e+00 
  0.000000000000e+00   0.000000000000e+00   0.000000000000e+00   0.000000000000e+00   0.000000000000e+00   0.000000000000e+00   0.000000000000e+00   0.000000000000e+00   0.000000000000e+00 
  0.000000000000e+00   0.000000000000e+00   0.000000000000e+00   0.000000000000e+00   0.000000000000e+00   0.000000000000e+00   0.000000000000e+00   0.000000000000e+00   0.000000000000e+00 
  0.000000000000e+00   0.000000000000e+00   0.000000000000e+00   0.000000000000e+00   0.000000000000e+00   0.000000000000e+00   0.000000000000e+00   0.000000000000e+00   0.000000000000e+00 
  0.000000000000e+00   0.000000000000e+00   0.000000000000e+00   0.000000000000e+00   0.000000000000e+00   0.000000000000e+00   0.000000000000e+00   0.000000000000e+00   0.000000000000e+00 
  0.000000000000e+00   0.000000000000e+00   0.000000000000e+00   0.000000000000e+00   0.000000000000e+00   0.000000000000e+00   0.000000000000e+00   0.000000000000e+00   0.000000000000e+00 
  0.000000000000e+00   0.000000000000e+00   0.000000000000e+00   0.000000000000e+00   0.000000000000e+00   0.000000000000e+00   0.000000000000e+00   0.000000000000e+00   0.000000000000e+00 
  0.000000000000e+00   0.000000000000e+00   0.000000000000e+00   0.000000000000e+00   0.000000000000e+00   0.000000000000e+00   0.000000000000e+00   0.000000000000e+00   0.000000000000e+00 
  0.000000000000e+00   0.000000000000e+00   0.000000000000e+00   0.000000000000e+00   0.000000000000e+00   0.000000000000e+00   0.000000000000e+00   0.000000000000e+00   0.000000000000e+00 
  0.000000000000e+00   0.000000000000e+00   0.000000000000e+00   0.000000000000e+00   0.000000000000e+00   0.000000000000e+00   0.000000000000e+00   0.000000000000e+00   0.000000000000e+00 
  0.000000000000e+00   0.000000000000e+00   0.000000000000e+00   0.000000000000e+00   0.000000000000e+00   0.000000000000e+00   0.000000000000e+00   0.000000000000e+00   0.000000000000e+00 
  0.000000000000e+00   0.000000000000e+00   0.000000000000e+00   0.000000000000e+00   0.000000000000e+00   0.000000000000e+00   0.000000000000e+00   0.000000000000e+00   0.000000000000e+00 
  0.000000000000e+00   0.000000000000e+00   0.000000000000e+00   0.000000000000e+00   0.000000000000e+00   0.000000000000e+00   0.000000000000e+00   0.000000000000e+00   0.000000000000e+00 
  0.000000000000e+00   0.000000000000e+00   0.000000000000e+00   0.000000000000e+00   0.000000000000e+00   0.000000000000e+00   0.000000000000e+00   0.000000000000e+00   0.000000000000e+00 
  0.000000000000e+00   0.000000000000e+00   0.000000000000e+00   0.000000000000e+00   0.000000000000e+00   0.000000000000e+00   0.000000000000e+00   0.000000000000e+00   0.000000000000e+00 
  0.000000000000e+00   0.000000000000e+00   0.000000000000e+00   0.000000000000e+00   0.000000000000e+00   0.000000000000e+00   0.000000000000e+00   0.000000000000e+00   0.000000000000e+00 
  0.000000000000e+00   0.000000000000e+00   0.000000000000e+00   0.000000000000e+00   0.000000000000e+00   0.000000000000e+00   0.000000000000e+00   0.000000000000e+00   0.000000000000e+00 
  0.000000000000e+00   0.000000000000e+00   0.000000000000e+00   0.000000000000e+00   0.000000000000e+00   0.000000000000e+00   0.000000000000e+00   0.000000000000e+00   0.000000000000e+00 
  0.000000000000e+00   0.000000000000e+00   0.000000000000e+00   0.000000000000e+00   0.000000000000e+00   0.000000000000e+00   0.000000000000e+00   0.000000000000e+00   0.000000000000e+00 
  0.000000000000e+00   0.000000000000e+00   0.000000000000e+00   0.000000000000e+00   0.000000000000e+00   0.000000000000e+00   0.000000000000e+00   0.000000000000e+00   0.000000000000e+00 
  0.000000000000e+00   0.000000000000e+00   0.000000000000e+00   0.000000000000e+00   0.000000000000e+00   0.000000000000e+00   0.000000000000e+00   0.000000000000e+00   0.000000000000e+00 
  0.000000000000e+00   0.000000000000e+00   0.000000000000e+00   0.000000000000e+00   0.000000000000e+00   0.000000000000e+00   0.000000000000e+00   0.000000000000e+00   0.000000000000e+00 
  0.000000000000e+00   0.000000000000e+00   0.000000000000e+00   0.000000000000e+00   0.000000000000e+00   0.000000000000e+00   0.000000000000e+00   0.000000000000e+00   0.000000000000e+00 
  0.000000000000e+00   0.000000000000e+00   0.000000000000e+00   0.000000000000e+00   0.000000000000e+00   0.000000000000e+00   0.000000000000e+00   0.000000000000e+00   0.000000000000e+00 
  0.000000000000e+00   0.000000000000e+00   0.000000000000e+00   0.000000000000e+00   0.000000000000e+00   0.000000000000e+00   0.000000000000e+00   0.000000000000e+00   0.000000000000e+00 
  0.000000000000e+00   0.000000000000e+00   0.000000000000e+00   0.000000000000e+00   0.000000000000e+00   0.000000000000e+00   0.000000000000e+00   0.000000000000e+00   0.000000000000e+00 
  0.000000000000e+00   0.000000000000e+00   0.000000000000e+00   0.000000000000e+00   0.000000000000e+00   0.000000000000e+00   0.000000000000e+00   0.000000000000e+00   0.000000000000e+00 
  0.000000000000e+00   0.000000000000e+00   0.000000000000e+00   0.000000000000e+00   0.000000000000e+00   0.000000000000e+00   0.000000000000e+00   0.000000000000e+00   0.000000000000e+00 
  0.000000000000e+00   0.000000000000e+00   0.000000000000e+00   0.000000000000e+00   0.000000000000e+00   0.000000000000e+00   0.000000000000e+00   0.000000000000e+00   0.000000000000e+00 
  0.000000000000e+00   0.000000000000e+00   0.000000000000e+00   0.000000000000e+00   0.000000000000e+00   0.000000000000e+00   0.000000000000e+00   0.000000000000e+00   0.000000000000e+00 
  0.000000000000e+00   0.000000000000e+00   0.000000000000e+00   0.000000000000e+00   0.000000000000e+00   0.000000000000e+00   0.000000000000e+00   9.362263679504e+00   9.362474441528e+00 
  9.362887382507e+00   9.363490104675e+00   9.364256858826e+00   9.365154266357e+00   9.366137504578e+00   9.367161750793e+00   9.368180274963e+00   9.369153976440e+00   9.370048522949e+00 
  9.370840072632e+00   9.371510505676e+00   9.372055053711e+00   9.372467041016e+00   9.372781753540e+00   9.372900962830e+00   9.373294830322e+00   0.000000000000e+00   0.000000000000e+00 
  9.276538848877e+00   9.276760101318e+00   9.277196884155e+00   9.277835845947e+00   9.278653144836e+00   9.279610633850e+00   9.280660629272e+00   9.281749725342e+00   9.282828330994e+00 
  9.283853530884e+00   9.284790039062e+00   9.285611152649e+00   9.286299705505e+00   9.286849975586e+00   9.287255287170e+00   9.287559509277e+00   9.287663459778e+00   9.288063049316e+00 
  0.000000000000e+00   0.000000000000e+00   9.149245262146e+00   9.149482727051e+00   9.149960517883e+00   9.150670051575e+00   9.151587486267e+00   9.152666091919e+00   9.153846740723e+00 
  9.155065536499e+00   9.156261444092e+00   9.157385826111e+00   9.158398628235e+00   9.159271240234e+00   9.159984588623e+00   9.160533905029e+00   9.160916328430e+00   9.161186218262e+00 
  9.161246299744e+00   9.161655426025e+00   0.000000000000e+00   0.000000000000e+00   8.926552772522e+00   8.926787376404e+00   8.927271842957e+00   8.928016662598e+00   8.929004669189e+00 
  8.930186271667e+00   8.931485176086e+00   8.932821273804e+00   8.934122085571e+00   8.935328483582e+00   8.936395645142e+00   8.937292098999e+00   8.937994956970e+00   8.938494682312e+00 
  8.938796043396e+00   8.938970565796e+00   8.938931465149e+00   8.939334869385e+00   0.000000000000e+00   0.000000000000e+00   8.526284217834e+00   8.526533126831e+00   8.527070999146e+00 
  8.527933120728e+00   8.529105186462e+00   8.530516624451e+00   8.532064437866e+00   8.533641815186e+00   8.535158157349e+00   8.536538124084e+00   8.537730216980e+00   8.538701057434e+00 
  8.539417266846e+00   8.539862632751e+00   8.540041923523e+00   8.540060043335e+00   8.539853096008e+00   8.540231704712e+00   0.000000000000e+00   0.000000000000e+00   8.146632194519e+00 
  8.146895408630e+00   8.147537231445e+00   8.148628234863e+00   8.150156974792e+00   8.152002334595e+00   8.153991699219e+00   8.155980110168e+00   8.157849311829e+00   8.159501075745e+00 
  8.160884857178e+00   8.161977767944e+00   8.162729263306e+00   8.163097381592e+00   8.163083076477e+00   8.162835121155e+00   8.162341117859e+00   8.162639617920e+00   0.000000000000e+00 
  0.000000000000e+00   7.649216651917e+00   7.649117469788e+00   7.649195194244e+00   7.649699687958e+00   7.650719165802e+00   7.652153968811e+00   7.653820037842e+00   7.655583381653e+00 
  7.657310485840e+00   7.658833503723e+00   7.660082817078e+00   7.661054611206e+00   7.661642074585e+00   7.661723136902e+00   7.661268711090e+00   7.660477638245e+00   7.659442424774e+00 
  7.659521579742e+00   0.000000000000e+00   0.000000000000e+00   6.900952339172e+00   6.900953292847e+00   6.901393413544e+00   6.902473926544e+00   6.904279232025e+00   6.906536102295e+00 
  6.908860683441e+00   6.911159992218e+00   6.913340091705e+00   6.915115833282e+00   6.916465759277e+00   6.917544364929e+00   6.918144702911e+00   6.917999744415e+00   6.917026519775e+00 
  6.915483474731e+00   6.913646697998e+00   6.913332462311e+00   0.000000000000e+00   0.000000000000e+00   6.087703704834e+00   6.085861206055e+00   6.083638191223e+00   6.082024097443e+00 
  6.081256389618e+00   6.081261157990e+00   6.081862449646e+00   6.083160400391e+00   6.084939956665e+00   6.086374759674e+00   6.087384223938e+00   6.088424205780e+00   6.088987350464e+00 
  6.088531017303e+00   6.086904525757e+00   6.084371089935e+00   6.081441879272e+00   6.080510616302e+00   0.000000000000e+00   0.000000000000e+00   5.000116348267e+00   4.997400283813e+00 
  4.993200778961e+00   4.990293502808e+00   4.988777637482e+00   4.987729549408e+00   4.986752510071e+00   4.986710071564e+00   4.987951278687e+00   4.988584995270e+00   4.988743305206e+00 
  4.989726543427e+00   4.990203857422e+00   4.989254474640e+00   4.986937999725e+00   4.983448505402e+00   4.979441165924e+00   4.977853775024e+00   0.000000000000e+00   0.000000000000e+00 
  3.631442785263e+00   3.627280950546e+00   3.621348857880e+00   3.614340782166e+00   3.611043453217e+00   3.604070663452e+00   3.599664211273e+00   3.597587585449e+00   3.597599744797e+00 
  3.597017049789e+00   3.596758365631e+00   3.597856044769e+00   3.598096132278e+00   3.596395730972e+00   3.593920469284e+00   3.590697288513e+00   3.586991548538e+00   3.585502624512e+00 
  0.000000000000e+00   0.000000000000e+00   2.084034204483e+00   2.074410676956e+00   2.056966304779e+00   2.044004917145e+00   2.039139986038e+00   2.033705949783e+00   2.029120445251e+00 
  2.025461435318e+00   2.024016141891e+00   2.022239685059e+00   2.021485805511e+00   2.022267818451e+00   2.021902561188e+00   2.020075798035e+00   2.018582105637e+00   2.017390727997e+00 
  2.016166687012e+00   2.015988588333e+00   0.000000000000e+00   0.000000000000e+00   0.000000000000e+00   0.000000000000e+00   0.000000000000e+00   0.000000000000e+00   0.000000000000e+00 
  0.000000000000e+00   0.000000000000e+00   0.000000000000e+00   0.000000000000e+00   0.000000000000e+00   0.000000000000e+00   0.000000000000e+00   0.000000000000e+00   0.000000000000e+00 
  0.000000000000e+00   0.000000000000e+00   0.000000000000e+00   0.000000000000e+00   0.000000000000e+00   0.000000000000e+00   0.000000000000e+00   0.000000000000e+00   0.000000000000e+00 
  0.000000000000e+00   0.000000000000e+00   0.000000000000e+00   0.000000000000e+00   0.000000000000e+00   0.000000000000e+00   0.000000000000e+00   0.000000000000e+00   0.000000000000e+00 
  0.000000000000e+00   0.000000000000e+00   0.000000000000e+00   0.000000000000e+00   0.000000000000e+00   0.000000000000e+00   0.000000000000e+00   0.000000000000e+00   0.000000000000e+00 
  0.000000000000e+00   0.000000000000e+00   0.000000000000e+00   0.000000000000e+00   0.000000000000e+00   0.000000000000e+00   0.000000000000e+00   0.000000000000e+00   0.000000000000e+00 
  0.000000000000e+00   0.000000000000e+00   0.000000000000e+00   0.000000000000e+00   0.000000000000e+00   0.000000000000e+00   0.000000000000e+00   0.000000000000e+00   0.000000000000e+00 
  0.000000000000e+00   0.000000000000e+00   0.000000000000e+00   0.000000000000e+00   0.000000000000e+00   0.000000000000e+00   0.000000000000e+00   0.000000000000e+00   0.000000000000e+00 
  0.000000000000e+00   0.000000000000e+00   0.000000000000e+00   0.000000000000e+00   0.000000000000e+00   0.000000000000e+00   0.000000000000e+00   0.000000000000e+00   0.000000000000e+00 
  0.000000000000e+00   0.000000000000e+00   0.000000000000e+00   0.000000000000e+00   0.000000000000e+00   0.000000000000e+00   0.000000000000e+00   0.000000000000e+00   0.000000000000e+00 
  0.000000000000e+00   0.000000000000e+00   0.000000000000e+00   0.000000000000e+00   0.000000000000e+00   0.000000000000e+00   0.000000000000e+00   0.000000000000e+00   0.000000000000e+00 
  0.000000000000e+00   0.000000000000e+00   0.000000000000e+00   0.000000000000e+00   0.000000000000e+00   0.000000000000e+00   0.000000000000e+00   0.000000000000e+00   0.000000000000e+00 
  0.000000000000e+00   0.000000000000e+00   0.000000000000e+00   0.000000000000e+00   0.000000000000e+00   0.000000000000e+00   0.000000000000e+00   0.000000000000e+00   0.000000000000e+00 
  0.000000000000e+00   0.000000000000e+00   0.000000000000e+00   0.000000000000e+00   0.000000000000e+00   0.000000000000e+00   0.000000000000e+00   0.000000000000e+00   0.000000000000e+00 
  0.000000000000e+00   0.000000000000e+00   0.000000000000e+00   0.000000000000e+00   0.000000000000e+00   0.000000000000e+00   0.000000000000e+00   0.000000000000e+00   0.000000000000e+00 
  0.000000000000e+00   0.000000000000e+00   0.000000000000e+00   0.000000000000e+00   0.000000000000e+00   0.000000000000e+00   0.000000000000e+00   0.000000000000e+00   0.000000000000e+00 
  0.000000000000e+00   0.000000000000e+00   0.000000000000e+00   0.000000000000e+00   0.000000000000e+00   0.000000000000e+00   0.000000000000e+00   0.000000000000e+00   0.000000000000e+00 
  0.000000000000e+00   0.000000000000e+00   0.000000000000e+00   0.000000000000e+00   0.000000000000e+00   0.000000000000e+00   0.000000000000e+00   0.000000000000e+00   0.000000000000e+00 
  0.000000000000e+00   0.000000000000e+00   8.389242172241e+00   8.389445304871e+00   8.389843940735e+00   8.390425682068e+00   8.391166687012e+00   8.392033576965e+00   8.392984390259e+00 
  8.393973350525e+00   8.394959449768e+00   8.395901679993e+00   8.396769523621e+00   8.397538185120e+00   8.398192405701e+00   8.398725509644e+00   8.399129867554e+00   8.399439811707e+00 
  8.399559974670e+00   8.399943351746e+00   0.000000000000e+00   0.000000000000e+00   8.301262855530e+00   8.301475524902e+00   8.301896095276e+00   8.302513122559e+00   8.303301811218e+00 
  8.304226875305e+00   8.305239677429e+00   8.306292533875e+00   8.307335853577e+00   8.308328628540e+00   8.309236526489e+00   8.310034751892e+00   8.310707092285e+00   8.311246871948e+00 
  8.311648368835e+00   8.311949729919e+00   8.312056541443e+00   8.312446594238e+00   0.000000000000e+00   0.000000000000e+00   8.172635078430e+00   8.172865867615e+00   8.173328399658e+00 
  8.174017906189e+00   8.174909591675e+00   8.175958633423e+00   8.177107810974e+00   8.178293228149e+00   8.179456710815e+00   8.180551528931e+00   8.181539535522e+00   8.182394981384e+00 
  8.183097839355e+00   8.183643341064e+00   8.184028625488e+00   8.184302330017e+00   8.184370994568e+00   8.184770584106e+00   0.000000000000e+00   0.000000000000e+00   7.955549240112e+00 
  7.955786705017e+00   7.956278800964e+00   7.957035541534e+00   7.958039760590e+00   7.959236621857e+00   7.960546493530e+00   7.961887836456e+00   7.963188648224e+00   7.964392185211e+00 
  7.965458393097e+00   7.966359138489e+00   7.967072010040e+00   7.967587947845e+00   7.967907905579e+00   7.968101024628e+00   7.968077659607e+00   7.968477725983e+00   0.000000000000e+00 
  0.000000000000e+00   7.567812919617e+00   7.568008422852e+00   7.568452358246e+00   7.569196224213e+00   7.570244789124e+00   7.571534633636e+00   7.572964191437e+00   7.574432373047e+00 
  7.575851440430e+00   7.577149391174e+00   7.578277587891e+00   7.579205513000e+00   7.579898834229e+00   7.580333709717e+00   7.580510616302e+00   7.580528736115e+00   7.580323696136e+00 
  7.580695629120e+00   0.000000000000e+00   0.000000000000e+00   7.180897235870e+00   7.181056976318e+00   7.181531906128e+00   7.182454109192e+00   7.183851718903e+00   7.185606002808e+00 
  7.187526702881e+00   7.189461231232e+00   7.191291332245e+00   7.192911624908e+00   7.194278240204e+00   7.195379734039e+00   7.196159362793e+00   7.196557998657e+00   7.196564674377e+00 
  7.196323871613e+00   7.195821762085e+00   7.196117401123e+00   0.000000000000e+00   0.000000000000e+00   6.710017204285e+00   6.709864139557e+00   6.709950923920e+00   6.710632324219e+00 
  6.712036609650e+00   6.713969707489e+00   6.716094493866e+00   6.718239784241e+00   6.720279693604e+00   6.722021579742e+00   6.723428726196e+00   6.724572181702e+00   6.725327014923e+00 
  6.725532531738e+00   6.725131511688e+00   6.724318504333e+00   6.723204612732e+00   6.723258495331e+00   0.000000000000e+00   0.000000000000e+00   5.942265987396e+00   5.941614627838e+00 
  5.941177368164e+00   5.941642761230e+00   5.943288326263e+00   5.945687770844e+00   5.948177814484e+00   5.950699806213e+00   5.953184127808e+00   5.955125331879e+00   5.956514835358e+00 
  5.957779407501e+00   5.958597660065e+00   5.958564758301e+00   5.957525253296e+00   5.955708503723e+00   5.953470706940e+00   5.952979564667e+00   0.000000000000e+00   0.000000000000e+00 
  5.121165752411e+00   5.118370532990e+00   5.115641593933e+00   5.114460945129e+00   5.115558624268e+00   5.118126392365e+00   5.120674610138e+00   5.123594760895e+00   5.127011775970e+00 
  5.129267692566e+00   5.130398750305e+00   5.132109642029e+00   5.133405685425e+00   5.133307456970e+00   5.131506919861e+00   5.128135681152e+00   5.123948574066e+00   5.122394084930e+00 
  0.000000000000e+00   0.000000000000e+00   3.965324640274e+00   3.961069822311e+00   3.955920696259e+00   3.952700376511e+00   3.953217983246e+00   3.955658435822e+00   3.956538677216e+00 
  3.958275794983e+00   3.962307691574e+00   3.963999509811e+00   3.963385581970e+00   3.965425729752e+00   3.967478036880e+00   3.967444419861e+00   3.964895725250e+00   3.959441184998e+00 
  3.952244997025e+00   3.949021339417e+00   0.000000000000e+00   0.000000000000e+00   2.391193866730e+00   2.365850925446e+00   2.354194402695e+00   2.348810195923e+00   2.346366882324e+00 
  2.345206499100e+00   2.343567609787e+00   2.343359231949e+00   2.344428777695e+00   2.345926761627e+00   2.346397161484e+00   2.346771955490e+00   2.348559856415e+00   2.349008083344e+00 
  2.346944332123e+00   2.341654539108e+00   2.334034681320e+00   2.330539226532e+00   0.000000000000e+00   0.000000000000e+00   0.000000000000e+00   0.000000000000e+00   0.000000000000e+00 
  0.000000000000e+00   0.000000000000e+00   0.000000000000e+00   0.000000000000e+00   0.000000000000e+00   0.000000000000e+00   0.000000000000e+00   0.000000000000e+00   0.000000000000e+00 
  0.000000000000e+00   0.000000000000e+00   0.000000000000e+00   0.000000000000e+00   0.000000000000e+00   0.000000000000e+00   0.000000000000e+00   0.000000000000e+00   0.000000000000e+00 
  0.000000000000e+00   0.000000000000e+00   0.000000000000e+00   0.000000000000e+00   0.000000000000e+00   0.000000000000e+00   0.000000000000e+00   0.000000000000e+00   0.000000000000e+00 
  0.000000000000e+00   0.000000000000e+00   0.000000000000e+00   0.000000000000e+00   0.000000000000e+00   0.000000000000e+00   0.000000000000e+00   0.000000000000e+00   0.000000000000e+00 
  0.000000000000e+00   0.000000000000e+00   0.000000000000e+00   0.000000000000e+00   0.000000000000e+00   0.000000000000e+00   0.000000000000e+00   0.000000000000e+00   0.000000000000e+00 
  0.000000000000e+00   0.000000000000e+00   0.000000000000e+00   0.000000000000e+00   0.000000000000e+00   0.000000000000e+00   0.000000000000e+00   0.000000000000e+00   0.000000000000e+00 
  0.000000000000e+00   0.000000000000e+00   0.000000000000e+00   0.000000000000e+00   0.000000000000e+00   0.000000000000e+00   0.000000000000e+00   0.000000000000e+00   0.000000000000e+00 
  0.000000000000e+00   0.000000000000e+00   0.000000000000e+00   0.000000000000e+00   0.000000000000e+00   0.000000000000e+00   0.000000000000e+00   0.000000000000e+00   0.000000000000e+00 
  0.000000000000e+00   0.000000000000e+00   0.000000000000e+00   0.000000000000e+00   0.000000000000e+00   0.000000000000e+00   0.000000000000e+00   0.000000000000e+00   0.000000000000e+00 
  0.000000000000e+00   0.000000000000e+00   0.000000000000e+00   0.000000000000e+00   0.000000000000e+00   0.000000000000e+00   0.000000000000e+00   0.000000000000e+00   0.000000000000e+00 
  0.000000000000e+00   0.000000000000e+00   0.000000000000e+00   0.000000000000e+00   0.000000000000e+00   0.000000000000e+00   0.000000000000e+00   0.000000000000e+00   0.000000000000e+00 
  0.000000000000e+00   0.000000000000e+00   0.000000000000e+00   0.000000000000e+00   0.000000000000e+00   0.000000000000e+00   0.000000000000e+00   0.000000000000e+00   0.000000000000e+00 
  0.000000000000e+00   0.000000000000e+00   0.000000000000e+00   0.000000000000e+00   0.000000000000e+00   0.000000000000e+00   0.000000000000e+00   0.000000000000e+00   0.000000000000e+00 
  0.000000000000e+00   0.000000000000e+00   0.000000000000e+00   0.000000000000e+00   0.000000000000e+00   0.000000000000e+00   0.000000000000e+00   0.000000000000e+00   0.000000000000e+00 
  0.000000000000e+00   0.000000000000e+00   0.000000000000e+00   0.000000000000e+00   0.000000000000e+00   0.000000000000e+00   0.000000000000e+00   0.000000000000e+00   0.000000000000e+00 
  0.000000000000e+00   0.000000000000e+00   0.000000000000e+00   0.000000000000e+00   0.000000000000e+00   0.000000000000e+00   0.000000000000e+00   0.000000000000e+00   0.000000000000e+00 
  0.000000000000e+00   0.000000000000e+00   0.000000000000e+00   0.000000000000e+00   0.000000000000e+00   0.000000000000e+00   0.000000000000e+00   0.000000000000e+00   0.000000000000e+00 
  0.000000000000e+00   0.000000000000e+00   0.000000000000e+00   0.000000000000e+00   0.000000000000e+00   0.000000000000e+00   0.000000000000e+00   0.000000000000e+00   0.000000000000e+00 
  0.000000000000e+00   0.000000000000e+00   0.000000000000e+00   0.000000000000e+00   0.000000000000e+00   0.000000000000e+00   0.000000000000e+00   0.000000000000e+00   0.000000000000e+00 
  0.000000000000e+00   0.000000000000e+00   0.000000000000e+00   0.000000000000e+00   0.000000000000e+00   0.000000000000e+00   7.448904037476e+00   7.449091911316e+00   7.449460983276e+00 
  7.449999809265e+00   7.450686454773e+00   7.451490402222e+00   7.452373504639e+00   7.453293800354e+00   7.454211711884e+00   7.455091476440e+00   7.455904006958e+00   7.456628322601e+00 
  7.457248210907e+00   7.457756996155e+00   7.458147048950e+00   7.458448886871e+00   7.458570003510e+00   7.458931922913e+00   0.000000000000e+00   0.000000000000e+00   7.356579303741e+00 
  7.356775283813e+00   7.357162952423e+00   7.357731819153e+00   7.358461380005e+00   7.359317779541e+00   7.360258102417e+00   7.361236095428e+00   7.362207889557e+00   7.363135337830e+00 
  7.363987922668e+00   7.364742279053e+00   7.365382671356e+00   7.365902423859e+00   7.366293430328e+00   7.366591930389e+00   7.366703510284e+00   7.367072582245e+00   0.000000000000e+00 
  0.000000000000e+00   7.227042675018e+00   7.227251529694e+00   7.227671146393e+00   7.228299140930e+00   7.229115486145e+00   7.230080127716e+00   7.231139183044e+00   7.232234477997e+00 
  7.233313560486e+00   7.234332561493e+00   7.235258102417e+00   7.236066341400e+00   7.236739635468e+00   7.237270355225e+00   7.237653732300e+00   7.237932682037e+00   7.238013744354e+00 
  7.238395214081e+00   0.000000000000e+00   0.000000000000e+00   7.021572113037e+00   7.021783351898e+00   7.022224903107e+00   7.022912979126e+00   7.023836135864e+00   7.024944305420e+00 
  7.026161193848e+00   7.027409076691e+00   7.028622150421e+00   7.029749870300e+00   7.030756950378e+00   7.031619071960e+00   7.032314300537e+00   7.032832145691e+00   7.033168792725e+00 
  7.033384799957e+00   7.033388137817e+00   7.033776760101e+00   0.000000000000e+00   0.000000000000e+00   6.662443161011e+00   6.662609100342e+00   6.663000583649e+00   6.663683414459e+00 
  6.664671897888e+00   6.665901660919e+00   6.667261123657e+00   6.668650627136e+00   6.669991016388e+00   6.671218872070e+00   6.672295570374e+00   6.673197746277e+00   6.673891067505e+00 
  6.674347400665e+00   6.674560070038e+00   6.674617767334e+00   6.674448490143e+00   6.674820899963e+00   0.000000000000e+00   0.000000000000e+00   6.246944904327e+00   6.247031211853e+00 
  6.247380256653e+00   6.248166561127e+00   6.249453067780e+00   6.251123428345e+00   6.252960205078e+00   6.254808902740e+00   6.256563663483e+00   6.258124828339e+00   6.259460449219e+00 
  6.260576248169e+00   6.261405944824e+00   6.261876106262e+00   6.261959075928e+00   6.261784553528e+00   6.261323928833e+00   6.261646747589e+00   0.000000000000e+00   0.000000000000e+00 