# vtk DataFile Version 2.0
Written using VisIt writer
ASCII
DATASET RECTILINEAR_GRID
DIMENSIONS 20 20 20
X_COORDINATES 20 float
  0.000000000000e+00   1.000000000000e+00   2.000000000000e+00   3.000000000000e+00   4.000000000000e+00   5.000000000000e+00   6.000000000000e+00   7.000000000000e+00   8.000000000000e+00 
  9.000000000000e+00   1.000000000000e+01   1.100000000000e+01   1.200000000000e+01   1.300000000000e+01   1.400000000000e+01   1.500000000000e+01   1.600000000000e+01   1.700000000000e+01 
  1.800000000000e+01   1.900000000000e+01 
Y_COORDINATES 20 float
  0.000000000000e+00   1.000000000000e+00   2.000000000000e+00   3.000000000000e+00   4.000000000000e+00   5.000000000000e+00   6.000000000000e+00   7.000000000000e+00   8.000000000000e+00 
  9.000000000000e+00   1.000000000000e+01   1.100000000000e+01   1.200000000000e+01   1.300000000000e+01   1.400000000000e+01   1.500000000000e+01   1.600000000000e+01   1.700000000000e+01 
  1.800000000000e+01   1.900000000000e+01 
Z_COORDINATES 20 float
  0.000000000000e+00   1.000000000000e+00   2.000000000000e+00   3.000000000000e+00   4.000000000000e+00   5.000000000000e+00   6.000000000000e+00   7.000000000000e+00   8.000000000000e+00 
  9.000000000000e+00   1.000000000000e+01   1.100000000000e+01   1.200000000000e+01   1.300000000000e+01   1.400000000000e+01   1.500000000000e+01   1.600000000000e+01   1.700000000000e+01 
  1.800000000000e+01   1.900000000000e+01 
CELL_DATA 6859
POINT_DATA 8000
SCALARS pressure float
LOOKUP_TABLE default
  0.000000000000e+00   0.000000000000e+00   0.000000000000e+00   0.000000000000e+00   0.000000000000e+00   0.000000000000e+00   0.000000000000e+00   0.000000000000e+00   0.000000000000e+00 
  0.000000000000e+00   0.000000000000e+00   0.000000000000e+00   0.000000000000e+00   0.000000000000e+00   0.000000000000e+00   0.000000000000e+00   0.000000000000e+00   0.000000000000e+00 
  0.000000000000e+00   0.000000000000e+00   0.000000000000e+00   0.000000000000e+00   0.000000000000e+00   0.000000000000e+00   0.000000000000e+00   0.000000000000e+00   0.000000000000e+00 
  0.000000000000e+00   0.000000000000e+00   0.000000000000e+00   0.000000000000e+00   0.000000000000e+00   0.000000000000e+00   0.000000000000e+00   0.000000000000e+00   0.000000000000e+00 
  0.000000000000e+00   0.000000000000e+00   0.000000000000e+00   0.000000000000e+00   0.000000000000e+00   0.000000000000e+00   0.000000000000e+00   0.000000000000e+00   0.000000000000e+00 
  0.000000000000e+00   0.000000000000e+00   0.000000000000e+00   0.000000000000e+00   0.000000000000e+00   0.000000000000e+00   0.000000000000e+00   0.000000000000e+00   0.000000000000e+00 
  0.000000000000e+00   0.000000000000e+00   0.000000000000e+00   0.000000000000e+00   0.000000000000e+00   0.000000000000e+00   0.000000000000e+00   0.000000000000e+00   0.000000000000e+00 
  0.000000000000e+00   0.000000000000e+00   0.000000000000e+00   0.000000000000e+00   0.000000000000e+00   0.000000000000e+00   0.000000000000e+00   0.000000000000e+00   0.000000000000e+00 
  0.000000000000e+00   0.000000000000e+00   0.000000000000e+00   0.000000000000e+00   0.000000000000e+00   0.000000000000e+00   0.000000000000e+00   0.000000000000e+00   0.000000000000e+00 
  0.000000000000e+00   0.000000000000e+00   0.000000000000e+00   0.000000000000e+00   0.000000000000e+00   0.000000000000e+00   0.000000000000e+00   0.000000000000e+00   0.000000000000e+00 
  0.000000000000e+00   0.000000000000e+00   0.000000000000e+00   0.000000000000e+00   0.000000000000e+00   0.000000000000e+00   0.000000000000e+00   0.000000000000e+00   0.000000000000e+00 
  0.000000000000e+00   0.000000000000e+00   0.000000000000e+00   0.000000000000e+00   0.000000000000e+00   0.000000000000e+00   0.000000000000e+00   0.000000000000e+00   0.000000000000e+00 
  0.000000000000e+00   0.000000000000e+00   0.000000000000e+00   0.000000000000e+00   0.000000000000e+00   0.000000000000e+00   0.000000000000e+00   0.000000000000e+00   0.000000000000e+00 
  0.000000000000e+00   0.000000000000e+00   0.000000000000e+00   0.000000000000e+00   0.000000000000e+00   0.000000000000e+00   0.000000000000e+00   0.000000000000e+00   0.000000000000e+00 
  0.000000000000e+00   0.000000000000e+00   0.000000000000e+00   0.000000000000e+00   0.000000000000e+00   0.000000000000e+00   0.000000000000e+00   0.000000000000e+00   0.000000000000e+00 
  0.000000000000e+00   0.000000000000e+00   0.000000000000e+00   0.000000000000e+00   0.000000000000e+00   0.000000000000e+00   0.000000000000e+00   0.000000000000e+00   0.000000000000e+00 
  0.000000000000e+00   0.000000000000e+00   0.000000000000e+00   0.000000000000e+00   0.000000000000e+00   0.000000000000e+00   0.000000000000e+00   0.000000000000e+00   0.000000000000e+00 
  0.000000000000e+00   0.000000000000e+00   0.000000000000e+00   0.000000000000e+00   0.000000000000e+00   0.000000000000e+00   0.000000000000e+00   0.000000000000e+00   0.000000000000e+00 
  0.000000000000e+00   0.000000000000e+00   0.000000000000e+00   0.000000000000e+00   0.000000000000e+00   0.000000000000e+00   0.000000000000e+00   0.000000000000e+00   0.000000000000e+00 
  0.000000000000e+00   0.000000000000e+00   0.000000000000e+00   0.000000000000e+00   0.000000000000e+00   0.000000000000e+00   0.000000000000e+00   0.000000000000e+00   0.000000000000e+00 
  0.000000000000e+00   0.000000000000e+00   0.000000000000e+00   0.000000000000e+00   0.000000000000e+00   0.000000000000e+00   0.000000000000e+00   0.000000000000e+00   0.000000000000e+00 
  0.000000000000e+00   0.000000000000e+00   0.000000000000e+00   0.000000000000e+00   0.000000000000e+00   0.000000000000e+00   0.000000000000e+00   0.000000000000e+00   0.000000000000e+00 
  0.000000000000e+00   0.000000000000e+00   0.000000000000e+00   0.000000000000e+00   0.000000000000e+00   0.000000000000e+00   0.000000000000e+00   0.000000000000e+00   0.000000000000e+00 
  0.000000000000e+00   0.000000000000e+00   0.000000000000e+00   0.000000000000e+00   0.000000000000e+00   0.000000000000e+00   0.000000000000e+00   0.000000000000e+00   0.000000000000e+00 
  0.000000000000e+00   0.000000000000e+00   0.000000000000e+00   0.000000000000e+00   0.000000000000e+00   0.000000000000e+00   0.000000000000e+00   0.000000000000e+00   0.000000000000e+00 
  0.000000000000e+00   0.000000000000e+00   0.000000000000e+00   0.000000000000e+00   0.000000000000e+00   0.000000000000e+00   0.000000000000e+00   0.000000000000e+00   0.000000000000e+00 
  0.000000000000e+00   0.000000000000e+00   0.000000000000e+00   0.000000000000e+00   0.000000000000e+00   0.000000000000e+00   0.000000000000e+00   0.000000000000e+00   0.000000000000e+00 
  0.000000000000e+00   0.000000000000e+00   0.000000000000e+00   0.000000000000e+00   0.000000000000e+00   0.000000000000e+00   0.000000000000e+00   0.000000000000e+00   0.000000000000e+00 
  0.000000000000e+00   0.000000000000e+00   0.000000000000e+00   0.000000000000e+00   0.000000000000e+00   0.000000000000e+00   0.000000000000e+00   0.000000000000e+00   0.000000000000e+00 
  0.000000000000e+00   0.000000000000e+00   0.000000000000e+00   0.000000000000e+00   0.000000000000e+00   0.000000000000e+00   0.000000000000e+00   0.000000000000e+00   0.000000000000e+00 
  0.000000000000e+00   0.000000000000e+00   0.000000000000e+00   0.000000000000e+00   0.000000000000e+00   0.000000000000e+00   0.000000000000e+00   0.000000000000e+00   0.000000000000e+00 
  0.000000000000e+00   0.000000000000e+00   0.000000000000e+00   0.000000000000e+00   0.000000000000e+00   0.000000000000e+00   0.000000000000e+00   0.000000000000e+00   0.000000000000e+00 
  0.000000000000e+00   0.000000000000e+00   0.000000000000e+00   0.000000000000e+00   0.000000000000e+00   0.000000000000e+00   0.000000000000e+00   0.000000000000e+00   0.000000000000e+00 
  0.000000000000e+00   0.000000000000e+00   0.000000000000e+00   0.000000000000e+00   0.000000000000e+00   0.000000000000e+00   0.000000000000e+00   0.000000000000e+00   0.000000000000e+00 
  0.000000000000e+00   0.000000000000e+00   0.000000000000e+00   0.000000000000e+00   0.000000000000e+00   0.000000000000e+00   0.000000000000e+00   0.000000000000e+00   0.000000000000e+00 
  0.000000000000e+00   0.000000000000e+00   0.000000000000e+00   0.000000000000e+00   0.000000000000e+00   0.000000000000e+00   0.000000000000e+00   0.000000000000e+00   0.000000000000e+00 
  0.000000000000e+00   0.000000000000e+00   0.000000000000e+00   0.000000000000e+00   0.000000000000e+00   0.000000000000e+00   0.000000000000e+00   0.000000000000e+00   0.000000000000e+00 
  0.000000000000e+00   0.000000000000e+00   0.000000000000e+00   0.000000000000e+00   0.000000000000e+00   0.000000000000e+00   0.000000000000e+00   0.000000000000e+00   0.000000000000e+00 
  0.000000000000e+00   0.000000000000e+00   0.000000000000e+00   0.000000000000e+00   0.000000000000e+00   0.000000000000e+00   0.000000000000e+00   0.000000000000e+00   0.000000000000e+00 
  0.000000000000e+00   0.000000000000e+00   0.000000000000e+00   0.000000000000e+00   0.000000000000e+00   0.000000000000e+00   0.000000000000e+00   0.000000000000e+00   0.000000000000e+00 
  0.000000000000e+00   0.000000000000e+00   0.000000000000e+00   0.000000000000e+00   0.000000000000e+00   0.000000000000e+00   0.000000000000e+00   0.000000000000e+00   0.000000000000e+00 
  0.000000000000e+00   0.000000000000e+00   0.000000000000e+00   0.000000000000e+00   0.000000000000e+00   0.000000000000e+00   0.000000000000e+00   0.000000000000e+00   0.000000000000e+00 
  0.000000000000e+00   0.000000000000e+00   0.000000000000e+00   0.000000000000e+00   0.000000000000e+00   0.000000000000e+00   0.000000000000e+00   0.000000000000e+00   0.000000000000e+00 
  0.000000000000e+00   0.000000000000e+00   0.000000000000e+00   0.000000000000e+00   0.000000000000e+00   0.000000000000e+00   0.000000000000e+00   0.000000000000e+00   0.000000000000e+00 
  0.000000000000e+00   0.000000000000e+00   0.000000000000e+00   0.000000000000e+00   0.000000000000e+00   0.000000000000e+00   0.000000000000e+00   0.000000000000e+00   0.000000000000e+00 
  0.000000000000e+00   0.000000000000e+00   0.000000000000e+00   0.000000000000e+00   0.000000000000e+00   0.000000000000e+00   0.000000000000e+00   0.000000000000e+00   0.000000000000e+00 
  0.000000000000e+00   0.000000000000e+00   0.000000000000e+00   0.000000000000e+00   0.000000000000e+00   0.000000000000e+00   0.000000000000e+00   2.859777212143e+00   2.854831695557e+00 
  2.994714498520e+00   3.020906925201e+00   3.213653802872e+00   3.405240535736e+00   3.481418848038e+00   3.529818534851e+00   3.469594240189e+00   3.426843643188e+00   3.368909358978e+00 
  3.309791803360e+00   3.270642995834e+00   3.152741670609e+00   3.102869272232e+00   3.047183990479e+00   3.068310260773e+00   3.054119348526e+00   0.000000000000e+00   0.000000000000e+00 
  2.783413171768e+00   2.736090898514e+00   2.733355522156e+00   2.950132131577e+00   3.206623315811e+00   3.433005332947e+00   3.554388284683e+00   3.585811138153e+00   3.529205322266e+00 
  3.443759918213e+00   3.367120265961e+00   3.277682781219e+00   3.224875926971e+00   3.175585031509e+00   3.125035047531e+00   3.079824209213e+00   3.072249889374e+00   3.057955980301e+00 
  0.000000000000e+00   0.000000000000e+00   2.667296648026e+00   2.462695360184e+00   2.097266197205e+00   2.730967044830e+00   3.228313446045e+00   3.558589935303e+00   3.733395576477e+00 
  3.768311500549e+00   3.669835090637e+00   3.554516315460e+00   3.467556476593e+00   3.359829425812e+00   3.313409328461e+00   3.242254257202e+00   3.184899806976e+00   3.138214588165e+00 
  3.115248918533e+00   3.125179767609e+00   0.000000000000e+00   0.000000000000e+00   2.674819469452e+00   2.260991096497e+00   3.648583412170e+00   2.461398839951e+00   3.467858552933e+00 
  3.886151552200e+00   4.059593200684e+00   4.175752639771e+00   3.830491304398e+00   3.693135976791e+00   3.762775421143e+00   3.469764709473e+00   3.498500347137e+00   3.369757175446e+00 
  3.284441232681e+00   3.367091417313e+00   3.264721870422e+00   3.289694547653e+00   0.000000000000e+00   0.000000000000e+00   3.017112255096e+00   2.841256380081e+00   2.506660938263e+00 
  3.190795898438e+00   3.786828756332e+00   4.186077594757e+00   4.336447238922e+00   4.255253314972e+00   4.063806056976e+00   3.888358116150e+00   3.776627302170e+00   3.628768444061e+00 
  3.607076406479e+00   3.542490005493e+00   3.498783111572e+00   3.475263118744e+00   3.443132877350e+00   3.458403825760e+00   0.000000000000e+00   0.000000000000e+00   3.539703369141e+00 
  3.534966707230e+00   3.595256328583e+00   3.962250232697e+00   4.342640876770e+00   4.687743663788e+00   4.778227806091e+00   4.582365036011e+00   4.369754314423e+00   4.182219982147e+00 
  4.027215480804e+00   3.918811798096e+00   3.830767631531e+00   3.769017219543e+00   3.720499515533e+00   3.694468498230e+00   3.680770158768e+00   3.683344602585e+00   0.000000000000e+00 
  0.000000000000e+00   4.051408290863e+00   4.108983039856e+00   4.256883144379e+00   4.512390613556e+00   4.790058135986e+00   5.028049945831e+00   5.043209552765e+00   4.907953262329e+00 
  4.734110355377e+00   4.568216800690e+00   4.426700115204e+00   4.319469928741e+00   4.232990741730e+00   4.159903526306e+00   4.119593143463e+00   4.085638523102e+00   4.067578792572e+00 
  4.083029270172e+00   0.000000000000e+00   0.000000000000e+00   4.452572345734e+00   4.527554035187e+00   4.680718898773e+00   4.903684139252e+00   5.159147739410e+00   5.356850147247e+00 
  5.372859954834e+00   5.262962341309e+00   5.102652072906e+00   4.893048286438e+00   4.715978622437e+00   4.615486621857e+00   4.532009601593e+00   4.466654777527e+00   4.437877655029e+00 
  4.406447410583e+00   4.387070178986e+00   4.399936199188e+00   0.000000000000e+00   0.000000000000e+00   4.931727886200e+00   4.993597507477e+00   5.124665737152e+00   5.305005550385e+00 
  5.507293701172e+00   5.681806087494e+00   5.714509963989e+00   5.697004318237e+00   5.570662975311e+00   5.681836605072e+00   5.379495143890e+00   5.260011196136e+00   5.179884433746e+00 
  5.109612941742e+00   5.100507259369e+00   4.997018337250e+00   4.963579654694e+00   5.085993766785e+00   0.000000000000e+00   0.000000000000e+00   5.301760673523e+00   5.349367141724e+00 
  5.474065303802e+00   5.641591548920e+00   5.827400684357e+00   5.961857795715e+00   6.038389682770e+00   6.046356678009e+00   5.996030807495e+00   5.905830383301e+00   5.764217853546e+00 
  5.684085845947e+00   5.629491806030e+00   5.503915786743e+00   5.469469547272e+00   5.483182430267e+00   5.445406913757e+00   5.493512630463e+00   0.000000000000e+00   0.000000000000e+00 
  5.672487735748e+00   5.721669673920e+00   5.815243244171e+00   5.962495803833e+00   6.126174449921e+00   6.246919631958e+00   6.316010951996e+00   6.359993934631e+00   6.362457275391e+00 
  6.328287601471e+00   6.290144443512e+00   6.212461948395e+00   6.161331653595e+00   6.109108924866e+00   6.065618991852e+00   6.037727355957e+00   6.034040451050e+00   6.010993480682e+00 
  0.000000000000e+00   0.000000000000e+00   5.947731494904e+00   6.003108501434e+00   6.072648048401e+00   6.275047302246e+00   6.303215503693e+00   6.503989219666e+00   6.588685512543e+00 
  6.554974079132e+00   6.715889930725e+00   6.659199714661e+00   6.663169860840e+00   6.658488273621e+00   6.612247943878e+00   6.543035984039e+00   6.494800090790e+00   6.471732616425e+00 
  6.491579055786e+00   6.506426334381e+00   0.000000000000e+00   0.000000000000e+00   6.126093864441e+00   6.173133373260e+00   6.269842624664e+00   6.398435592651e+00   6.532827854156e+00 
  6.637118339539e+00   6.733790397644e+00   6.788143634796e+00   6.851129531860e+00   6.878917694092e+00   6.925820827484e+00   6.928603649139e+00   6.919961929321e+00   6.893598556519e+00 
  6.856678962708e+00   6.843942165375e+00   6.844199657440e+00   6.865497589111e+00   0.000000000000e+00   0.000000000000e+00   6.388390541077e+00   6.426895618439e+00   6.505901336670e+00 
  6.611433029175e+00   6.725747108459e+00   6.827220439911e+00   6.919424057007e+00   7.006844043732e+00   7.069912910461e+00   7.141131401062e+00   7.188621520996e+00   7.205767154694e+00 
  7.201826572418e+00   7.169855594635e+00   7.144014358521e+00   7.138457775116e+00   7.174070358276e+00   7.144744873047e+00   0.000000000000e+00   0.000000000000e+00   6.563514232635e+00 
  6.570328235626e+00   6.648663520813e+00   6.743050098419e+00   6.840207576752e+00   6.945489883423e+00   7.038078308105e+00   7.119599342346e+00   7.199129104614e+00   7.261224269867e+00 
  7.305794239044e+00   7.335659980774e+00   7.338802814484e+00   7.328043460846e+00   7.324070453644e+00   7.320341587067e+00   7.378400325775e+00   7.280920028687e+00   0.000000000000e+00 
  0.000000000000e+00   6.674813747406e+00   6.706267356873e+00   6.781577110291e+00   6.861677646637e+00   6.956859111786e+00   7.047416210175e+00   7.137059211731e+00   7.222311019897e+00 
  7.299088478088e+00   7.364737987518e+00   7.416764259338e+00   7.447915554047e+00   7.459937572479e+00   7.458836555481e+00   7.456070899963e+00   7.451497077942e+00   7.478199958801e+00 
  7.441316604614e+00   0.000000000000e+00   0.000000000000e+00   6.916006565094e+00   6.861378669739e+00   6.882568836212e+00   6.954679012299e+00   7.038394451141e+00   7.124226093292e+00 
  7.215063571930e+00   7.297324657440e+00   7.377976894379e+00   7.441507339478e+00   7.491194725037e+00   7.526935577393e+00   7.545524120331e+00   7.550444602966e+00   7.549526214600e+00 
  7.548460006714e+00   7.546764850616e+00   7.544672012329e+00   0.000000000000e+00   0.000000000000e+00   6.736258506775e+00   6.798491954803e+00   6.910137653351e+00   6.999064922333e+00 
  7.081218242645e+00   7.164879322052e+00   7.237400531769e+00   7.317567825317e+00   7.387206554413e+00   7.455965518951e+00   7.504755020142e+00   7.539367198944e+00   7.563687324524e+00 
  7.579130172729e+00   7.580349922180e+00   7.579691886902e+00   7.571547985077e+00   7.565882205963e+00   0.000000000000e+00   0.000000000000e+00   0.000000000000e+00   0.000000000000e+00 
  0.000000000000e+00   0.000000000000e+00   0.000000000000e+00   0.000000000000e+00   0.000000000000e+00   0.000000000000e+00   0.000000000000e+00   0.000000000000e+00   0.000000000000e+00 
  0.000000000000e+00   0.000000000000e+00   0.000000000000e+00   0.000000000000e+00   0.000000000000e+00   0.000000000000e+00   0.000000000000e+00   0.000000000000e+00   0.000000000000e+00 
  0.000000000000e+00   0.000000000000e+00   0.000000000000e+00   0.000000000000e+00   0.000000000000e+00   0.000000000000e+00   0.000000000000e+00   0.000000000000e+00   0.000000000000e+00 
  0.000000000000e+00   0.000000000000e+00   0.000000000000e+00   0.000000000000e+00   0.000000000000e+00   0.000000000000e+00   0.000000000000e+00   0.000000000000e+00   0.000000000000e+00 
  0.000000000000e+00   0.000000000000e+00   1.864049673080e+00   1.886861681938e+00   1.970515251160e+00   2.022194385529e+00   2.141185522079e+00   2.303267002106e+00   2.417087316513e+00 
  2.445737838745e+00   2.405920982361e+00   2.338936567307e+00   2.272243261337e+00   2.200208663940e+00   2.159273386002e+00   2.095098257065e+00   2.027929067612e+00   1.980572223663e+00 
  1.966303706169e+00   1.994261860847e+00   0.000000000000e+00   0.000000000000e+00   1.816060900688e+00   1.800077915192e+00   1.813234210014e+00   1.980206727982e+00   2.187921762466e+00 
  2.373555421829e+00   2.509498119354e+00   2.529194593430e+00   2.447354316711e+00   2.333813428879e+00   2.302878856659e+00   2.172512531281e+00   2.117354154587e+00   2.086441040039e+00 
  2.022812843323e+00   1.894792437553e+00   1.956836104393e+00   2.034949779510e+00   0.000000000000e+00   0.000000000000e+00   1.792352676392e+00   1.715943813324e+00   1.667742967606e+00 
  1.954030990601e+00   2.270556449890e+00   2.578528642654e+00   2.800608158112e+00   2.758674860001e+00   2.627325534821e+00   2.459879875183e+00   2.329482793808e+00   2.239894151688e+00 
  2.197471380234e+00   2.153008222580e+00   2.097697019577e+00   2.037150859833e+00   2.035304784775e+00   2.054960727692e+00   0.000000000000e+00   0.000000000000e+00   1.840371727943e+00 
  1.681847453117e+00   1.379616379738e+00   1.981889128685e+00   2.503937959671e+00   2.902853965759e+00   3.250052452087e+00   3.042955636978e+00   2.800983667374e+00   2.608281135559e+00 
  2.502792119980e+00   2.377579212189e+00   2.360066890717e+00   2.312719821930e+00   2.277162790298e+00   2.241972208023e+00   2.237641096115e+00   2.256676435471e+00   0.000000000000e+00 
  0.000000000000e+00   2.141133546829e+00   2.064914941788e+00   2.059860229492e+00   2.456882476807e+00   2.920822858810e+00   3.505626678467e+00   3.827831268311e+00   3.336012363434e+00 
  3.004308462143e+00   2.796709537506e+00   2.652365684509e+00   2.562166690826e+00   2.499565601349e+00   2.444284439087e+00   2.415411472321e+00   2.365746736526e+00   2.367543220520e+00 
  2.372673988342e+00   0.000000000000e+00   0.000000000000e+00   2.523436307907e+00   2.568341493607e+00   2.730273723602e+00   3.096591234207e+00   3.422828674316e+00   4.019346237183e+00 
  4.050011634827e+00   3.586134195328e+00   3.278305530548e+00   3.059510707855e+00   2.925631046295e+00   2.811223506927e+00   2.729265928268e+00   2.672824144363e+00   2.631019115448e+00 
  2.610682249069e+00   2.600761175156e+00   2.598692178726e+00   0.000000000000e+00   0.000000000000e+00   2.949394702911e+00   2.995256185532e+00   3.167141914368e+00   3.419245958328e+00 
  3.732808113098e+00   4.309675216675e+00   4.206547737122e+00   3.781998395920e+00   3.484874963760e+00   3.234053373337e+00   3.136107444763e+00   3.052490472794e+00   2.980854272842e+00 
  2.930423021317e+00   2.891396522522e+00   2.877774953842e+00   2.870294094086e+00   2.874516248703e+00   0.000000000000e+00   0.000000000000e+00   3.440694808960e+00   3.491117954254e+00 
  3.658268451691e+00   3.907335519791e+00   4.248925209045e+00   4.739008903503e+00   4.545822620392e+00   4.325652599335e+00   4.171267986298e+00   3.791703224182e+00   3.599331617355e+00 
  3.511030435562e+00   3.438215255737e+00   3.385900020599e+00   3.356114864349e+00   3.341897010803e+00   3.323255300522e+00   3.317702770233e+00   0.000000000000e+00   0.000000000000e+00 
  3.890258073807e+00   3.927491426468e+00   4.066097259521e+00   4.291085720062e+00   4.549180984497e+00   4.793293476105e+00   4.770134925842e+00   4.722715377808e+00   4.659008502960e+00 
  4.466007232666e+00   4.208780288696e+00   4.065602302551e+00   4.003533363342e+00   3.906962871552e+00   3.884517431259e+00   3.883334636688e+00   3.851471662521e+00   3.892462253571e+00 
  0.000000000000e+00   0.000000000000e+00   4.335364818573e+00   4.333246231079e+00   4.477110862732e+00   4.674763202667e+00   4.912258625031e+00   5.096048355103e+00   5.095921993256e+00 
  5.125688076019e+00   5.163364410400e+00   5.029380798340e+00   4.928201198578e+00   4.803561687469e+00   4.856294631958e+00   4.580503940582e+00   4.510295867920e+00   4.604150295258e+00 
  4.558292865753e+00   4.608153343201e+00   0.000000000000e+00   0.000000000000e+00   4.699949741364e+00   4.710581302643e+00   4.838941574097e+00   5.025680065155e+00   5.241240501404e+00 
  5.376047611237e+00   5.411141395569e+00   5.451768398285e+00   5.486614704132e+00   5.463403224945e+00   5.406619548798e+00   5.305969238281e+00   5.272348403931e+00   5.145843982697e+00 
  5.088424205780e+00   5.079814434052e+00   5.076410293579e+00   5.109978675842e+00   0.000000000000e+00   0.000000000000e+00   4.933462619781e+00   4.949659824371e+00   5.050001144409e+00 
  5.217368602753e+00   5.394570827484e+00   5.537240028381e+00   5.607934474945e+00   5.640460014343e+00   5.694385051727e+00   5.719805240631e+00   5.735108852386e+00   5.740742206573e+00 
  5.727958202362e+00   5.652413368225e+00   5.566259384155e+00   5.547665596008e+00   5.563614368439e+00   5.638361454010e+00   0.000000000000e+00   0.000000000000e+00   5.248947143555e+00 
  5.205957889557e+00   5.317441463470e+00   5.416875839233e+00   5.618200302124e+00   5.704046249390e+00   5.801127433777e+00   5.875489711761e+00   5.984110832214e+00   5.984286308289e+00 
  6.044135093689e+00   6.077354431152e+00   6.060670375824e+00   5.988903045654e+00   5.907273769379e+00   5.916347980499e+00   5.952946186066e+00   6.017822265625e+00   0.000000000000e+00 
  0.000000000000e+00   5.383656978607e+00   5.399526119232e+00   5.496523857117e+00   5.612743377686e+00   5.751437664032e+00   5.858978271484e+00   5.957778453827e+00   6.035860538483e+00 
  6.128663063049e+00   6.196130275726e+00   6.260132789612e+00   6.293638229370e+00   6.289168834686e+00   6.241931438446e+00   6.195016860962e+00   6.202040195465e+00   6.242807388306e+00 
  6.272086143494e+00   0.000000000000e+00   0.000000000000e+00   5.534721374512e+00   5.556025505066e+00   5.652844429016e+00   5.757556915283e+00   5.864581584930e+00   5.971356391907e+00 
  6.067449092865e+00   6.158679485321e+00   6.242377758026e+00   6.316066741943e+00   6.372815132141e+00   6.405942440033e+00   6.407666206360e+00   6.386964797974e+00   6.370958328247e+00 
  6.372309684753e+00   6.432620525360e+00   6.358867168427e+00   0.000000000000e+00   0.000000000000e+00   5.698049068451e+00   5.735098838806e+00   5.805523395538e+00   5.887672901154e+00 
  5.987164497375e+00   6.081801891327e+00   6.174272537231e+00   6.263013839722e+00   6.348170280457e+00   6.418719291687e+00   6.474175930023e+00   6.506966114044e+00   6.515470027924e+00 
  6.506171226501e+00   6.497012615204e+00   6.496862888336e+00   6.537986755371e+00   6.470151901245e+00   0.000000000000e+00   0.000000000000e+00   5.871485710144e+00   5.875202178955e+00 
  5.910189628601e+00   5.988894939423e+00   6.074697971344e+00   6.165734291077e+00   6.259052276611e+00   6.345730781555e+00   6.422769546509e+00   6.490518093109e+00   6.544183731079e+00 
  6.577788352966e+00   6.598473548889e+00   6.593430042267e+00   6.592454910278e+00   6.588672161102e+00   6.590202808380e+00   6.593146800995e+00   0.000000000000e+00   0.000000000000e+00 
  5.808167457581e+00   5.855193614960e+00   5.957258701324e+00   6.034855842590e+00   6.112781047821e+00   6.192071914673e+00   6.272355556488e+00   6.357150554657e+00   6.441411495209e+00 
  6.510608673096e+00   6.561536788940e+00   6.598638057709e+00   6.611771106720e+00   6.628090381622e+00   6.624509334564e+00   6.625826835632e+00   6.617657184601e+00   6.611870288849e+00 
  0.000000000000e+00   0.000000000000e+00   0.000000000000e+00   0.000000000000e+00   0.000000000000e+00   0.000000000000e+00   0.000000000000e+00   0.000000000000e+00   0.000000000000e+00 
  0.000000000000e+00   0.000000000000e+00   0.000000000000e+00   0.000000000000e+00   0.000000000000e+00   0.000000000000e+00   0.000000000000e+00   0.000000000000e+00   0.000000000000e+00 
  0.000000000000e+00   0.000000000000e+00   0.000000000000e+00   0.000000000000e+00   0.000000000000e+00   0.000000000000e+00   0.000000000000e+00   0.000000000000e+00   0.000000000000e+00 
  0.000000000000e+00   0.000000000000e+00   0.000000000000e+00   0.000000000000e+00   0.000000000000e+00   0.000000000000e+00   0.000000000000e+00   0.000000000000e+00   0.000000000000e+00 
  0.000000000000e+00   0.000000000000e+00   0.000000000000e+00   0.000000000000e+00   0.000000000000e+00   0.000000000000e+00   9.985091090202e-01   9.863747954369e-01   1.014559984207e+00 
  1.074818491936e+00   1.185711026192e+00   1.252243280411e+00   1.334205508232e+00   1.333336949348e+00   1.298443078995e+00   1.260107755661e+00   1.294032573700e+00   1.205786824226e+00 
  1.156186223030e+00   1.084152698517e+00   9.341772794724e-01   7.832082509995e-01   8.665876388550e-01   1.082554459572e+00   0.000000000000e+00   0.000000000000e+00   1.222891688347e+00 
  1.081841707230e+00   9.910621047020e-01   1.213363409042e+00   1.511711478233e+00   1.562962770462e+00   1.656909465790e+00   1.617013573647e+00   1.486627817154e+00   1.440641283989e+00 
  1.682090997696e+00   1.462803244591e+00   1.338057756424e+00   1.236063957214e+00   9.976509213448e-01   1.673180341721e+00   9.753767848015e-01   1.466762542725e+00   0.000000000000e+00 
  0.000000000000e+00   9.824194312096e-01   9.533299803734e-01   9.850579500198e-01   1.162917852402e+00   1.446231722832e+00   1.726513862610e+00   1.999535322189e+00   2.005353689194e+00 
  1.767035007477e+00   1.467506885529e+00   1.355431079865e+00   1.239654779434e+00   1.196950912476e+00   1.123052358627e+00   1.005542039871e+00   8.819627761841e-01   9.622224569321e-01 
  1.110454916954e+00   0.000000000000e+00   0.000000000000e+00   1.008650779724e+00   9.955492615700e-01   1.033024430275e+00   1.306091308594e+00   1.644774913788e+00   2.081644773483e+00 
  3.496610879898e+00   2.179310798645e+00   1.845905303955e+00   1.591628432274e+00   1.426871895790e+00   1.327398777008e+00   1.271731734276e+00   1.228156566620e+00   1.187943816185e+00 
  1.145343184471e+00   1.168370485306e+00   1.180282592773e+00   0.000000000000e+00   0.000000000000e+00   1.140484213829e+00   1.169815540314e+00   1.289553642273e+00   1.639689445496e+00 
  1.908933997154e+00   2.204207897186e+00   3.489343881607e+00   2.280222177505e+00   1.895515203476e+00   1.625994801521e+00   1.462381124496e+00   1.359855532646e+00   1.292359828949e+00 
  1.246431827545e+00   1.213566660881e+00   1.195466756821e+00   1.195149421692e+00   1.188997864723e+00   0.000000000000e+00   0.000000000000e+00   1.447664976120e+00   1.513453364372e+00 
  1.712091922760e+00   2.310900211334e+00   2.370427370071e+00   3.238790750504e+00   3.373375177383e+00   2.295677185059e+00   2.098529815674e+00   1.861422181129e+00   1.763302803040e+00 
  1.575629830360e+00   1.488263726234e+00   1.449659824371e+00   1.411363840103e+00   1.396899104118e+00   1.394199013710e+00   1.385063529015e+00   0.000000000000e+00   0.000000000000e+00 