# vtk DataFile Version 2.0
Written using VisIt writer
ASCII
DATASET RECTILINEAR_GRID
DIMENSIONS 20 20 20
X_COORDINATES 20 float
  0.000000000000e+00   1.000000000000e+00   2.000000000000e+00   3.000000000000e+00   4.000000000000e+00   5.000000000000e+00   6.000000000000e+00   7.000000000000e+00   8.000000000000e+00 
  9.000000000000e+00   1.000000000000e+01   1.100000000000e+01   1.200000000000e+01   1.300000000000e+01   1.400000000000e+01   1.500000000000e+01   1.600000000000e+01   1.700000000000e+01 
  1.800000000000e+01   1.900000000000e+01 
Y_COORDINATES 20 float
  0.000000000000e+00   1.000000000000e+00   2.000000000000e+00   3.000000000000e+00   4.000000000000e+00   5.000000000000e+00   6.000000000000e+00   7.000000000000e+00   8.000000000000e+00 
  9.000000000000e+00   1.000000000000e+01   1.100000000000e+01   1.200000000000e+01   1.300000000000e+01   1.400000000000e+01   1.500000000000e+01   1.600000000000e+01   1.700000000000e+01 
  1.800000000000e+01   1.900000000000e+01 
Z_COORDINATES 20 float
  0.000000000000e+00   1.000000000000e+00   2.000000000000e+00   3.000000000000e+00   4.000000000000e+00   5.000000000000e+00   6.000000000000e+00   7.000000000000e+00   8.000000000000e+00 
  9.000000000000e+00   1.000000000000e+01   1.100000000000e+01   1.200000000000e+01   1.300000000000e+01   1.400000000000e+01   1.500000000000e+01   1.600000000000e+01   1.700000000000e+01 
  1.800000000000e+01   1.900000000000e+01 
CELL_DATA 6859
POINT_DATA 8000
SCALARS pressure float
LOOKUP_TABLE default
  0.000000000000e+00   0.000000000000e+00   0.000000000000e+00   0.000000000000e+00   0.000000000000e+00   0.000000000000e+00   0.000000000000e+00   0.000000000000e+00   0.000000000000e+00 
  0.000000000000e+00   0.000000000000e+00   0.000000000000e+00   0.000000000000e+00   0.000000000000e+00   0.000000000000e+00   0.000000000000e+00   0.000000000000e+00   0.000000000000e+00 
  0.000000000000e+00   0.000000000000e+00   0.000000000000e+00   0.000000000000e+00   0.000000000000e+00   0.000000000000e+00   0.000000000000e+00   0.000000000000e+00   0.000000000000e+00 
  0.000000000000e+00   0.000000000000e+00   0.000000000000e+00   0.000000000000e+00   0.000000000000e+00   0.000000000000e+00   0.000000000000e+00   0.000000000000e+00   0.000000000000e+00 
  0.000000000000e+00   0.000000000000e+00   0.000000000000e+00   0.000000000000e+00   0.000000000000e+00   0.000000000000e+00   0.000000000000e+00   0.000000000000e+00   0.000000000000e+00 
  0.000000000000e+00   0.000000000000e+00   0.000000000000e+00   0.000000000000e+00   0.000000000000e+00   0.000000000000e+00   0.000000000000e+00   0.000000000000e+00   0.000000000000e+00 
  0.000000000000e+00   0.000000000000e+00   0.000000000000e+00   0.000000000000e+00   0.000000000000e+00   0.000000000000e+00   0.000000000000e+00   0.000000000000e+00   0.000000000000e+00 
  0.000000000000e+00   0.000000000000e+00   0.000000000000e+00   0.000000000000e+00   0.000000000000e+00   0.000000000000e+00   0.000000000000e+00   0.000000000000e+00   0.000000000000e+00 
  0.000000000000e+00   0.000000000000e+00   0.000000000000e+00   0.000000000000e+00   0.000000000000e+00   0.000000000000e+00   0.000000000000e+00   0.000000000000e+00   0.000000000000e+00 
  0.000000000000e+00   0.000000000000e+00   0.000000000000e+00   0.000000000000e+00   0.000000000000e+00   0.000000000000e+00   0.000000000000e+00   0.000000000000e+00   0.000000000000e+00 
  0.000000000000e+00   0.000000000000e+00   0.000000000000e+00   0.000000000000e+00   0.000000000000e+00   0.000000000000e+00   0.000000000000e+00   0.000000000000e+00   0.000000000000e+00 
  0.000000000000e+00   0.000000000000e+00   0.000000000000e+00   0.000000000000e+00   0.000000000000e+00   0.000000000000e+00   0.000000000000e+00   0.000000000000e+00   0.000000000000e+00 
  0.000000000000e+00   0.000000000000e+00   0.000000000000e+00   0.000000000000e+00   0.000000000000e+00   0.000000000000e+00   0.000000000000e+00   0.000000000000e+00   0.000000000000e+00 
  0.000000000000e+00   0.000000000000e+00   0.000000000000e+00   0.000000000000e+00   0.000000000000e+00   0.000000000000e+00   0.000000000000e+00   0.000000000000e+00   0.000000000000e+00 
  0.000000000000e+00   0.000000000000e+00   0.000000000000e+00   0.000000000000e+00   0.000000000000e+00   0.000000000000e+00   0.000000000000e+00   0.000000000000e+00   0.000000000000e+00 
  0.000000000000e+00   0.000000000000e+00   0.000000000000e+00   0.000000000000e+00   0.000000000000e+00   0.000000000000e+00   0.000000000000e+00   0.000000000000e+00   0.000000000000e+00 
  0.000000000000e+00   0.000000000000e+00   0.000000000000e+00   0.000000000000e+00   0.000000000000e+00   0.000000000000e+00   0.000000000000e+00   0.000000000000e+00   0.000000000000e+00 
  0.000000000000e+00   0.000000000000e+00   0.000000000000e+00   0.000000000000e+00   0.000000000000e+00   0.000000000000e+00   0.000000000000e+00   0.000000000000e+00   0.000000000000e+00 
  0.000000000000e+00   0.000000000000e+00   0.000000000000e+00   0.000000000000e+00   0.000000000000e+00   0.000000000000e+00   0.000000000000e+00   0.000000000000e+00   0.000000000000e+00 
  0.000000000000e+00   0.000000000000e+00   0.000000000000e+00   0.000000000000e+00   0.000000000000e+00   0.000000000000e+00   0.000000000000e+00   0.000000000000e+00   0.000000000000e+00 
  0.000000000000e+00   0.000000000000e+00   0.000000000000e+00   0.000000000000e+00   0.000000000000e+00   0.000000000000e+00   0.000000000000e+00   0.000000000000e+00   0.000000000000e+00 
  0.000000000000e+00   0.000000000000e+00   0.000000000000e+00   0.000000000000e+00   0.000000000000e+00   0.000000000000e+00   0.000000000000e+00   0.000000000000e+00   0.000000000000e+00 
  0.000000000000e+00   0.000000000000e+00   0.000000000000e+00   0.000000000000e+00   0.000000000000e+00   0.000000000000e+00   0.000000000000e+00   0.000000000000e+00   0.000000000000e+00 
  0.000000000000e+00   0.000000000000e+00   0.000000000000e+00   0.000000000000e+00   0.000000000000e+00   0.000000000000e+00   0.000000000000e+00   0.000000000000e+00   0.000000000000e+00 
  0.000000000000e+00   0.000000000000e+00   0.000000000000e+00   0.000000000000e+00   0.000000000000e+00   0.000000000000e+00   0.000000000000e+00   0.000000000000e+00   0.000000000000e+00 
  0.000000000000e+00   0.000000000000e+00   0.000000000000e+00   0.000000000000e+00   0.000000000000e+00   0.000000000000e+00   0.000000000000e+00   0.000000000000e+00   0.000000000000e+00 
  0.000000000000e+00   0.000000000000e+00   0.000000000000e+00   0.000000000000e+00   0.000000000000e+00   0.000000000000e+00   0.000000000000e+00   0.000000000000e+00   0.000000000000e+00 
  0.000000000000e+00   0.000000000000e+00   0.000000000000e+00   0.000000000000e+00   0.000000000000e+00   0.000000000000e+00   0.000000000000e+00   0.000000000000e+00   0.000000000000e+00 
  0.000000000000e+00   0.000000000000e+00   0.000000000000e+00   0.000000000000e+00   0.000000000000e+00   0.000000000000e+00   0.000000000000e+00   0.000000000000e+00   0.000000000000e+00 
  0.000000000000e+00   0.000000000000e+00   0.000000000000e+00   0.000000000000e+00   0.000000000000e+00   0.000000000000e+00   0.000000000000e+00   0.000000000000e+00   0.000000000000e+00 
  0.000000000000e+00   0.000000000000e+00   0.000000000000e+00   0.000000000000e+00   0.000000000000e+00   0.000000000000e+00   0.000000000000e+00   0.000000000000e+00   0.000000000000e+00 
  0.000000000000e+00   0.000000000000e+00   0.000000000000e+00   0.000000000000e+00   0.000000000000e+00   0.000000000000e+00   0.000000000000e+00   0.000000000000e+00   0.000000000000e+00 
  0.000000000000e+00   0.000000000000e+00   0.000000000000e+00   0.000000000000e+00   0.000000000000e+00   0.000000000000e+00   0.000000000000e+00   0.000000000000e+00   0.000000000000e+00 
  0.000000000000e+00   0.000000000000e+00   0.000000000000e+00   0.000000000000e+00   0.000000000000e+00   0.000000000000e+00   0.000000000000e+00   0.000000000000e+00   0.000000000000e+00 
  0.000000000000e+00   0.000000000000e+00   0.000000000000e+00   0.000000000000e+00   0.000000000000e+00   0.000000000000e+00   0.000000000000e+00   0.000000000000e+00   0.000000000000e+00 
  0.000000000000e+00   0.000000000000e+00   0.000000000000e+00   0.000000000000e+00   0.000000000000e+00   0.000000000000e+00   0.000000000000e+00   0.000000000000e+00   0.000000000000e+00 
  0.000000000000e+00   0.000000000000e+00   0.000000000000e+00   0.000000000000e+00   0.000000000000e+00   0.000000000000e+00   0.000000000000e+00   0.000000000000e+00   0.000000000000e+00 
  0.000000000000e+00   0.000000000000e+00   0.000000000000e+00   0.000000000000e+00   0.000000000000e+00   0.000000000000e+00   0.000000000000e+00   0.000000000000e+00   0.000000000000e+00 
  0.000000000000e+00   0.000000000000e+00   0.000000000000e+00   0.000000000000e+00   0.000000000000e+00   0.000000000000e+00   0.000000000000e+00   0.000000000000e+00   0.000000000000e+00 
  0.000000000000e+00   0.000000000000e+00   0.000000000000e+00   0.000000000000e+00   0.000000000000e+00   0.000000000000e+00   0.000000000000e+00   0.000000000000e+00   0.000000000000e+00 
  0.000000000000e+00   0.000000000000e+00   0.000000000000e+00   0.000000000000e+00   0.000000000000e+00   0.000000000000e+00   0.000000000000e+00   0.000000000000e+00   0.000000000000e+00 
  0.000000000000e+00   0.000000000000e+00   0.000000000000e+00   0.000000000000e+00   0.000000000000e+00   0.000000000000e+00   0.000000000000e+00   0.000000000000e+00   0.000000000000e+00 
  0.000000000000e+00   0.000000000000e+00   0.000000000000e+00   0.000000000000e+00   0.000000000000e+00   0.000000000000e+00   0.000000000000e+00   0.000000000000e+00   0.000000000000e+00 
  0.000000000000e+00   0.000000000000e+00   0.000000000000e+00   0.000000000000e+00   0.000000000000e+00   0.000000000000e+00   0.000000000000e+00   0.000000000000e+00   0.000000000000e+00 
  0.000000000000e+00   0.000000000000e+00   0.000000000000e+00   0.000000000000e+00   0.000000000000e+00   0.000000000000e+00   0.000000000000e+00   0.000000000000e+00   0.000000000000e+00 
  0.000000000000e+00   0.000000000000e+00   0.000000000000e+00   0.000000000000e+00   0.000000000000e+00   0.000000000000e+00   0.000000000000e+00   0.000000000000e+00   0.000000000000e+00 
  0.000000000000e+00   0.000000000000e+00   0.000000000000e+00   0.000000000000e+00   0.000000000000e+00   0.000000000000e+00   0.000000000000e+00   1.774769902229e+00   1.804867625237e+00 
  1.979033946991e+00   1.960676550865e+00   1.743917465210e+00   1.655903458595e+00   1.636016607285e+00   1.668694138527e+00   1.844375133514e+00   2.351773023605e+00   2.715276718140e+00 
  2.949089050293e+00   3.123651027679e+00   3.238729238510e+00   3.277438402176e+00   3.356621980667e+00   3.410174846649e+00   3.445307493210e+00   0.000000000000e+00   0.000000000000e+00 
  1.593563437462e+00   1.724403381348e+00   1.932913899422e+00   1.800106406212e+00   1.548290252686e+00   1.406090378761e+00   1.336996436119e+00   1.472334504128e+00   1.614165067673e+00 
  2.264081001282e+00   2.674511432648e+00   2.761424541473e+00   2.989876747131e+00   3.024245262146e+00   3.192503690720e+00   3.305886268616e+00   3.344767808914e+00   3.376571893692e+00 
  0.000000000000e+00   0.000000000000e+00   2.007854700089e+00   2.156627655029e+00   2.118012666702e+00   1.938946604729e+00   1.686603069305e+00   1.608863353729e+00   1.558766841888e+00 
  1.591340065002e+00   1.710751295090e+00   2.050867557526e+00   2.294392824173e+00   2.442333459854e+00   2.575295686722e+00   2.646475076675e+00   2.725488424301e+00   2.789523363113e+00 
  2.836413621902e+00   2.871651411057e+00   0.000000000000e+00   0.000000000000e+00   2.273174762726e+00   3.332058191299e+00   2.201777696609e+00   1.914328217506e+00   1.866616725922e+00 
  1.764763593674e+00   1.662266731262e+00   1.407912254333e+00   1.436864852905e+00   1.714529156685e+00   2.078037738800e+00   2.217500686646e+00   2.254013061523e+00   2.304673671722e+00 
  2.358403444290e+00   2.415991067886e+00   2.454079866409e+00   2.478988170624e+00   0.000000000000e+00   0.000000000000e+00   4.422425746918e+00   5.212556362152e+00   4.018021106720e+00 
  3.521109580994e+00   4.599987030029e+00   2.027987241745e+00   4.437879562378e+00   3.607243061066e+00   4.302791595459e+00   3.949557781219e+00   4.156623363495e+00   4.112966537476e+00 
  4.090625286102e+00   4.039893627167e+00   3.966738462448e+00   3.906298875809e+00   3.863218545914e+00   3.838397264481e+00   0.000000000000e+00   0.000000000000e+00   2.996591091156e+00 
  4.217572212219e+00   2.746015310287e+00   2.438426494598e+00   2.484053134918e+00   2.294052600861e+00   2.438599109650e+00   1.882425069809e+00   2.023755788803e+00   2.216294527054e+00 
  2.139972209930e+00   1.757127761841e+00   1.331105113029e+00   1.312913537025e+00   1.743840098381e+00   2.181177139282e+00   2.367273092270e+00   2.413894653320e+00   0.000000000000e+00 
  0.000000000000e+00   3.764575719833e+00   3.966782331467e+00   3.605063915253e+00   3.456177473068e+00   3.366482734680e+00   3.177776575089e+00   3.098048686981e+00   2.764890670776e+00 
  2.774253129959e+00   2.536058902740e+00   1.852124214172e+00   1.471827387810e+00   1.239462137222e+00   1.241175174713e+00   1.483426690102e+00   1.773365736008e+00   1.924051046371e+00 
  1.965435981750e+00   0.000000000000e+00   0.000000000000e+00   3.681654691696e+00   3.627293586731e+00   3.562094211578e+00   3.498749256134e+00   3.375186681747e+00   3.235771656036e+00 
  3.005130767822e+00   2.891528844833e+00   2.577790021896e+00   1.928880572319e+00   3.805762052536e+00   3.751473426819e+00   3.701031684875e+00   3.594100713730e+00   3.471242904663e+00 
  3.354373931885e+00   3.239892721176e+00   3.173909187317e+00   0.000000000000e+00   0.000000000000e+00   4.029778957367e+00   4.230837821960e+00   4.180458068848e+00   3.860882759094e+00 
  3.798422813416e+00   3.703614950180e+00   3.529607534409e+00   3.307994127274e+00   2.808714628220e+00   2.175652980804e+00   1.502306938171e+00   1.264381527901e+00   1.220351934433e+00 
  1.319254636765e+00   1.583586454391e+00   1.712852835655e+00   1.812426805496e+00   1.957654118538e+00   0.000000000000e+00   0.000000000000e+00   4.241519451141e+00   4.345824718475e+00 
  4.289433479309e+00   4.078243255615e+00   4.029113769531e+00   3.923264980316e+00   3.728336572647e+00   3.475575923920e+00   2.795083761215e+00   1.845601916313e+00   1.461098313332e+00 
  1.275309324265e+00   1.250603199005e+00   1.426888942719e+00   2.105350971222e+00   2.459879398346e+00   2.672297716141e+00   2.844157457352e+00   0.000000000000e+00   0.000000000000e+00 
  4.144797801971e+00   4.028301239014e+00   3.986222267151e+00   4.022510051727e+00   4.019983291626e+00   3.936752319336e+00   3.745882272720e+00   3.359994173050e+00   2.485489845276e+00 
  4.991582393646e+00   4.947044849396e+00   4.925907611847e+00   4.902289867401e+00   4.858097076416e+00   2.194512128830e+00   2.959074735641e+00   3.257273197174e+00   3.355092525482e+00 
  0.000000000000e+00   0.000000000000e+00   4.259147644043e+00   4.287378787994e+00   4.171933174133e+00   4.021816253662e+00   4.085429668427e+00   4.127740859985e+00   4.112785339355e+00 
  3.839464902878e+00   3.396475315094e+00   2.645417690277e+00   2.374362468719e+00   2.346508264542e+00   2.372971057892e+00   2.577168703079e+00   3.292901754379e+00   3.690996408463e+00 
  3.929907560349e+00   4.053306579590e+00   0.000000000000e+00   0.000000000000e+00   4.164867401123e+00   4.041388511658e+00   3.767552375793e+00   3.687506198883e+00   3.967803955078e+00 
  4.186255455017e+00   4.319117546082e+00   4.200152397156e+00   4.036699771881e+00   3.767941951752e+00   3.567299365997e+00   3.569180727005e+00   3.612408161163e+00   3.768209695816e+00 
  4.089216709137e+00   4.299154281616e+00   4.441957950592e+00   4.501055717468e+00   0.000000000000e+00   0.000000000000e+00   3.910292863846e+00   3.441033363342e+00   2.704207658768e+00 
  2.778792858124e+00   3.710850477219e+00   4.271659851074e+00   4.547573089600e+00   4.617629528046e+00   4.596826553345e+00   4.513114452362e+00   4.502157211304e+00   4.465367794037e+00 
  4.514760494232e+00   4.601184844971e+00   4.730207443237e+00   4.868191242218e+00   4.967279434204e+00   5.005810260773e+00   0.000000000000e+00   0.000000000000e+00   4.162869453430e+00 
  3.176363229752e+00   6.457049369812e+00   6.424695968628e+00   3.295144319534e+00   4.387384414673e+00   4.831283092499e+00   5.034057617188e+00   5.102902889252e+00   5.105719089508e+00 
  5.102319717407e+00   5.115933895111e+00   5.166709423065e+00   5.230205059052e+00   5.312753200531e+00   5.388064861298e+00   5.502249240875e+00   5.449128150940e+00   0.000000000000e+00 
  0.000000000000e+00   4.243712425232e+00   3.713793516159e+00   3.097264289856e+00   3.157705307007e+00   4.121064662933e+00   4.764664173126e+00   5.135987758636e+00   5.345260143280e+00 
  5.453063488007e+00   5.500368118286e+00   5.527781009674e+00   5.568994998932e+00   5.599015235901e+00   5.647449970245e+00   5.701799869537e+00   5.739748001099e+00   5.823986053467e+00 
  5.822787284851e+00   0.000000000000e+00   0.000000000000e+00   4.426306247711e+00   4.478251934052e+00   4.267690181732e+00   4.340995311737e+00   4.709808349609e+00   5.077334403992e+00 
  5.374833583832e+00   5.597848892212e+00   5.708066940308e+00   5.732340812683e+00   5.749940872192e+00   5.841589450836e+00   5.851288318634e+00   5.932793617249e+00   5.978211879730e+00 
  6.003679752350e+00   5.998382091522e+00   5.933959484100e+00   0.000000000000e+00   0.000000000000e+00   5.167098999023e+00   4.830012321472e+00   4.912148952484e+00   5.098207473755e+00 
  5.353003978729e+00   5.576298236847e+00   5.724282741547e+00   5.793576717377e+00   5.947674274445e+00   6.102221012115e+00   6.217346191406e+00   6.209314823151e+00   6.285054206848e+00 
  6.273222923279e+00   6.306309223175e+00   6.326537609100e+00   6.315466880798e+00   6.324947834015e+00   0.000000000000e+00   0.000000000000e+00   0.000000000000e+00   0.000000000000e+00 
  0.000000000000e+00   0.000000000000e+00   0.000000000000e+00   0.000000000000e+00   0.000000000000e+00   0.000000000000e+00   0.000000000000e+00   0.000000000000e+00   0.000000000000e+00 
  0.000000000000e+00   0.000000000000e+00   0.000000000000e+00   0.000000000000e+00   0.000000000000e+00   0.000000000000e+00   0.000000000000e+00   0.000000000000e+00   0.000000000000e+00 
  0.000000000000e+00   0.000000000000e+00   0.000000000000e+00   0.000000000000e+00   0.000000000000e+00   0.000000000000e+00   0.000000000000e+00   0.000000000000e+00   0.000000000000e+00 
  0.000000000000e+00   0.000000000000e+00   0.000000000000e+00   0.000000000000e+00   0.000000000000e+00   0.000000000000e+00   0.000000000000e+00   0.000000000000e+00   0.000000000000e+00 
  0.000000000000e+00   0.000000000000e+00   8.761792182922e-01   9.221561551094e-01   1.237870931625e+00   1.189495325089e+00   8.907706737518e-01   8.039924502373e-01   7.854179143906e-01 
  8.209906816483e-01   1.018652915955e+00   1.708762288094e+00   2.087396621704e+00   2.258865118027e+00   2.403247356415e+00   2.512710809708e+00   2.571305990219e+00   2.704199790955e+00 
  2.756590127945e+00   2.775725364685e+00   0.000000000000e+00   0.000000000000e+00   2.799660682678e+00   3.026350736618e+00   1.320540666580e+00   1.136502861977e+00   3.275658369064e+00 
  3.500505208969e+00   3.899302721024e+00   4.561728000641e+00   5.587568759918e+00   1.866200089455e+00   2.367446660995e+00   2.307057142258e+00   2.362973451614e+00   2.448964357376e+00 
  2.556636810303e+00   2.808560609818e+00   2.881999254227e+00   2.888765335083e+00   0.000000000000e+00   0.000000000000e+00   1.256642937660e+00   1.346239447594e+00   1.533306837082e+00 
  1.363945007324e+00   1.066598892212e+00   9.771696329117e-01   9.263904094696e-01   9.041195511818e-01   1.029322385788e+00   1.610365033150e+00   1.902414083481e+00   1.990592002869e+00 
  2.077357292175e+00   2.142168998718e+00   2.235318899155e+00   2.363469362259e+00   2.427140951157e+00   2.454345941544e+00   0.000000000000e+00   0.000000000000e+00   1.911308407784e+00 
  2.250850677490e+00   1.885970473289e+00   1.672275424004e+00   1.574815392494e+00   1.475560545921e+00   1.379827022552e+00   1.206921935081e+00   1.249503254890e+00   1.544668793678e+00 
  1.812102913857e+00   1.887945413589e+00   1.888290762901e+00   1.943664312363e+00   2.073015689850e+00   2.203139305115e+00   2.281740903854e+00   2.321580648422e+00   0.000000000000e+00 
  0.000000000000e+00   1.957481980324e+00   2.944227218628e+00   1.833344459534e+00   1.542266726494e+00   1.542990565300e+00   1.474055290222e+00   1.402259349823e+00   1.095655560493e+00 
  1.122007250786e+00   1.479376912117e+00   1.513982176781e+00   1.325670838356e+00   1.065964221954e+00   1.060145378113e+00   1.372764110565e+00   1.711499691010e+00   1.847760319710e+00 
  1.881240963936e+00   0.000000000000e+00   0.000000000000e+00   2.319874525070e+00   2.650055408478e+00   2.185950517654e+00   1.989110946655e+00   1.912375211716e+00   1.788050770760e+00 
  1.762248158455e+00   1.640570521355e+00   2.007670402527e+00   2.490999698639e+00   1.896483778954e+00   1.150002717972e+00   2.103701114655e+00   1.952434420586e+00   1.361209034920e+00 
  2.223369598389e+00   2.534482240677e+00   2.595012664795e+00   0.000000000000e+00   0.000000000000e+00   2.839842796326e+00   2.894857645035e+00   2.730956554413e+00   2.585013389587e+00 
  2.482846260071e+00   2.367786645889e+00   2.241638422012e+00   2.127970933914e+00   2.167046070099e+00   2.203536510468e+00   1.666540980339e+00   1.208334326744e+00   8.609944581985e-01 
  8.797448277473e-01   1.302392244339e+00   1.739281415939e+00   1.938876152039e+00   1.996994614601e+00   0.000000000000e+00   0.000000000000e+00   3.015352964401e+00   2.982480287552e+00 
  2.906448364258e+00   2.824465274811e+00   2.734035730362e+00   2.625020503998e+00   2.480041980743e+00   2.328160524368e+00   2.119123935699e+00   1.753603100777e+00   1.119187951088e+00 
  8.533223271370e-01   7.276529669762e-01   7.462189197540e-01   8.894842267036e-01   1.052203893661e+00   1.158672332764e+00   1.209429383278e+00   0.000000000000e+00   0.000000000000e+00 
  2.963157892227e+00   2.959489107132e+00   2.917740106583e+00   2.834895133972e+00   2.792298555374e+00   2.695665836334e+00   2.536169528961e+00   2.328603982925e+00   2.017337083817e+00 
  1.616426706314e+00   1.204456806183e+00   9.867832660675e-01   9.252142310143e-01   9.952337145805e-01   1.192514777184e+00   1.367256522179e+00   1.482050061226e+00   1.543207883835e+00 
  0.000000000000e+00   0.000000000000e+00   3.261486530304e+00   3.224680423737e+00   3.175211668015e+00   3.132803201675e+00   3.090795278549e+00   2.996375083923e+00   2.827042579651e+00 
  2.570741891861e+00   2.184975624084e+00   1.678223252296e+00   1.340835928917e+00   1.186186909676e+00   1.175886273384e+00   1.309703826904e+00   1.655094504356e+00   1.935076713562e+00 
  2.098427295685e+00   2.178756237030e+00   0.000000000000e+00   0.000000000000e+00   3.314254522324e+00   3.255684375763e+00   3.212955951691e+00   3.202029228210e+00   3.180828571320e+00 
  3.118512153625e+00   2.982990980148e+00   2.723130941391e+00   2.260563850403e+00   1.522028565407e+00   1.265975356102e+00   1.174836039543e+00   1.195552706718e+00   1.366641163826e+00 
  1.970789432526e+00   2.367837905884e+00   2.575854539871e+00   2.656130313873e+00   0.000000000000e+00   0.000000000000e+00   3.224647283554e+00   3.180761337280e+00   3.129480361938e+00 
  3.116672039032e+00   3.171360492706e+00   3.187179327011e+00   3.138685226440e+00   2.953281402588e+00   2.657733678818e+00   2.265287399292e+00   2.066555738449e+00   2.011904478073e+00 
  2.041850566864e+00   2.204169750214e+00   2.556124925613e+00   2.824583768845e+00   3.000461578369e+00   3.082934617996e+00   0.000000000000e+00   0.000000000000e+00   3.330739259720e+00 
  3.189843416214e+00   3.057831287384e+00   3.067676544189e+00   3.234177827835e+00   3.367632389069e+00   3.431377172470e+00   3.377903699875e+00   3.242139339447e+00   3.063851833344e+00 
  2.948833465576e+00   2.923010826111e+00   2.959824323654e+00   3.072076082230e+00   3.268893718719e+00   3.439064979553e+00   3.563260793686e+00   3.613671064377e+00   0.000000000000e+00 
  0.000000000000e+00   3.224522113800e+00   3.026856184006e+00   2.720998525620e+00   2.769577264786e+00   3.182950973511e+00   3.511314392090e+00   3.700587511063e+00   3.779375791550e+00 
  3.765844821930e+00   3.705469846725e+00   3.668130874634e+00   3.664242029190e+00   3.700973510742e+00   3.779796600342e+00   3.886245489120e+00   3.990184307098e+00   4.067534923553e+00 
  4.099430084229e+00   0.000000000000e+00   0.000000000000e+00   3.354001283646e+00   2.976004123688e+00   2.274879455566e+00   2.314038991928e+00   3.149584054947e+00   3.683936834335e+00 
  3.974354267120e+00   4.118302822113e+00   4.176393508911e+00   4.189057826996e+00   4.186939239502e+00   4.211583137512e+00   4.248892307281e+00   4.301533699036e+00   4.368996620178e+00 
  4.433579921722e+00   4.498119354248e+00   4.506316661835e+00   0.000000000000e+00   0.000000000000e+00   3.560281515121e+00   3.361947774887e+00   3.111332416534e+00   3.177801132202e+00 
  3.633475065231e+00   4.032608509064e+00   4.304417610168e+00   4.463872909546e+00   4.559989452362e+00   4.612456798553e+00   4.641054630280e+00   4.677959442139e+00   4.716337680817e+00 
  4.759287357330e+00   4.804174900055e+00   4.837567329407e+00   4.897019863129e+00   4.833569526672e+00   0.000000000000e+00   0.000000000000e+00   3.780366182327e+00   3.768784046173e+00 
  3.690846920013e+00   3.788806438446e+00   4.040242195129e+00   4.310101509094e+00   4.529078960419e+00   4.654727458954e+00   4.797366142273e+00   4.859272956848e+00   4.858104705811e+00 
  4.956650733948e+00   5.008280754089e+00   5.057483196259e+00   5.075386524200e+00   5.087351799011e+00   5.109465599060e+00   5.106615066528e+00   0.000000000000e+00   0.000000000000e+00 
  4.140460968018e+00   4.182526111603e+00   4.227276325226e+00   4.301541805267e+00   4.464187145233e+00   4.660880088806e+00   4.812047004700e+00   4.981441020966e+00   5.040203094482e+00 
  5.139184951782e+00   5.268445491791e+00   5.235658645630e+00   5.252596378326e+00   5.282548427582e+00   5.348001480103e+00   5.399998664856e+00   5.420112133026e+00   5.382503986359e+00 
  0.000000000000e+00   0.000000000000e+00   0.000000000000e+00   0.000000000000e+00   0.000000000000e+00   0.000000000000e+00   0.000000000000e+00   0.000000000000e+00   0.000000000000e+00 
  0.000000000000e+00   0.000000000000e+00   0.000000000000e+00   0.000000000000e+00   0.000000000000e+00   0.000000000000e+00   0.000000000000e+00   0.000000000000e+00   0.000000000000e+00 
  0.000000000000e+00   0.000000000000e+00   0.000000000000e+00   0.000000000000e+00   0.000000000000e+00   0.000000000000e+00   0.000000000000e+00   0.000000000000e+00   0.000000000000e+00 
  0.000000000000e+00   0.000000000000e+00   0.000000000000e+00   0.000000000000e+00   0.000000000000e+00   0.000000000000e+00   0.000000000000e+00   0.000000000000e+00   0.000000000000e+00 
  0.000000000000e+00   0.000000000000e+00   0.000000000000e+00   0.000000000000e+00   0.000000000000e+00   0.000000000000e+00   5.644932985306e-01   5.983986258507e-01   7.062010765076e-01 
  6.932099461555e-01   5.677157044411e-01   4.981914460659e-01   4.820248782635e-01   5.219923853874e-01   6.620438098907e-01   9.953542947769e-01   1.254016280174e+00   1.430782675743e+00 
  1.563961386681e+00   1.649764418602e+00   1.701150417328e+00   1.767534375191e+00   1.802644848824e+00   1.821090698242e+00   0.000000000000e+00   0.000000000000e+00   4.160851836205e-01 
  4.548613429070e-01   7.092808485031e-01   6.555176377296e-01   4.022150635719e-01   3.320915400982e-01   3.104116320610e-01   3.271205127239e-01   4.661213457584e-01   1.014983057976e+00 
  1.290757417679e+00   1.385856747627e+00   1.482256054878e+00   1.566665887833e+00   1.629618048668e+00   1.743780732155e+00   1.788899779320e+00   1.802990555763e+00   0.000000000000e+00 
  0.000000000000e+00   8.588329553604e-01   8.876108527184e-01   9.231130480766e-01   8.650574684143e-01   7.359449267387e-01   6.570383906364e-01   6.204754710197e-01   6.274403333664e-01 
  7.223405838013e-01   9.784779548645e-01   1.167385935783e+00   1.283631324768e+00   1.368640065193e+00   1.429554700851e+00   1.486464619637e+00   1.570517301559e+00   1.624536514282e+00 
  1.651425361633e+00   0.000000000000e+00   0.000000000000e+00   1.281102895737e+00   1.351620674133e+00   1.248689174652e+00   1.144289731979e+00   1.050231695175e+00   9.740834832191e-01 
  9.191408157349e-01   8.795957565308e-01   9.396148920059e-01   1.097722053528e+00   1.216501235962e+00   1.256193757057e+00   1.271233916283e+00   1.325743317604e+00   1.429857969284e+00 
  1.551100015640e+00   1.629358768463e+00   1.668889999390e+00   0.000000000000e+00   0.000000000000e+00   1.404187083244e+00   1.541868090630e+00   1.325721502304e+00   1.184256553650e+00 
  1.101059079170e+00   1.040805816650e+00   9.967775344849e-01   9.606001973152e-01   1.039998173714e+00   1.174057960510e+00   1.103066682816e+00   9.574301838875e-01   8.382325768471e-01 
  8.770026564598e-01   1.094455003738e+00   1.340792536736e+00   1.473957896233e+00   1.525001764297e+00   0.000000000000e+00   0.000000000000e+00   1.769316315651e+00   1.809096097946e+00 
  1.658694505692e+00   1.529541730881e+00   1.440890073776e+00   1.368367075920e+00   1.312918663025e+00   1.290426492691e+00   1.425170540810e+00   1.591212749481e+00   1.292038917542e+00 
  9.395432472229e-01   6.328308582306e-01   6.666936874390e-01   1.089492797852e+00   1.514299273491e+00   1.714597582817e+00   1.777112483978e+00   0.000000000000e+00   0.000000000000e+00 