# vtk DataFile Version 2.0
Written using VisIt writer
ASCII
DATASET RECTILINEAR_GRID
DIMENSIONS 20 20 20
X_COORDINATES 20 float
  0.000000000000e+00   1.000000000000e+00   2.000000000000e+00   3.000000000000e+00   4.000000000000e+00   5.000000000000e+00   6.000000000000e+00   7.000000000000e+00   8.000000000000e+00 
  9.000000000000e+00   1.000000000000e+01   1.100000000000e+01   1.200000000000e+01   1.300000000000e+01   1.400000000000e+01   1.500000000000e+01   1.600000000000e+01   1.700000000000e+01 
  1.800000000000e+01   1.900000000000e+01 
Y_COORDINATES 20 float
  0.000000000000e+00   1.000000000000e+00   2.000000000000e+00   3.000000000000e+00   4.000000000000e+00   5.000000000000e+00   6.000000000000e+00   7.000000000000e+00   8.000000000000e+00 
  9.000000000000e+00   1.000000000000e+01   1.100000000000e+01   1.200000000000e+01   1.300000000000e+01   1.400000000000e+01   1.500000000000e+01   1.600000000000e+01   1.700000000000e+01 
  1.800000000000e+01   1.900000000000e+01 
Z_COORDINATES 20 float
  0.000000000000e+00   1.000000000000e+00   2.000000000000e+00   3.000000000000e+00   4.000000000000e+00   5.000000000000e+00   6.000000000000e+00   7.000000000000e+00   8.000000000000e+00 
  9.000000000000e+00   1.000000000000e+01   1.100000000000e+01   1.200000000000e+01   1.300000000000e+01   1.400000000000e+01   1.500000000000e+01   1.600000000000e+01   1.700000000000e+01 
  1.800000000000e+01   1.900000000000e+01 
CELL_DATA 6859
POINT_DATA 8000
SCALARS pressure float
LOOKUP_TABLE default
  0.000000000000e+00   0.000000000000e+00   0.000000000000e+00   0.000000000000e+00   0.000000000000e+00   0.000000000000e+00   0.000000000000e+00   0.000000000000e+00   0.000000000000e+00 
  0.000000000000e+00   0.000000000000e+00   0.000000000000e+00   0.000000000000e+00   0.000000000000e+00   0.000000000000e+00   0.000000000000e+00   0.000000000000e+00   0.000000000000e+00 
  0.000000000000e+00   0.000000000000e+00   0.000000000000e+00   0.000000000000e+00   0.000000000000e+00   0.000000000000e+00   0.000000000000e+00   0.000000000000e+00   0.000000000000e+00 
  0.000000000000e+00   0.000000000000e+00   0.000000000000e+00   0.000000000000e+00   0.000000000000e+00   0.000000000000e+00   0.000000000000e+00   0.000000000000e+00   0.000000000000e+00 
  0.000000000000e+00   0.000000000000e+00   0.000000000000e+00   0.000000000000e+00   0.000000000000e+00   0.000000000000e+00   0.000000000000e+00   0.000000000000e+00   0.000000000000e+00 
  0.000000000000e+00   0.000000000000e+00   0.000000000000e+00   0.000000000000e+00   0.000000000000e+00   0.000000000000e+00   0.000000000000e+00   0.000000000000e+00   0.000000000000e+00 
  0.000000000000e+00   0.000000000000e+00   0.000000000000e+00   0.000000000000e+00   0.000000000000e+00   0.000000000000e+00   0.000000000000e+00   0.000000000000e+00   0.000000000000e+00 
  0.000000000000e+00   0.000000000000e+00   0.000000000000e+00   0.000000000000e+00   0.000000000000e+00   0.000000000000e+00   0.000000000000e+00   0.000000000000e+00   0.000000000000e+00 
  0.000000000000e+00   0.000000000000e+00   0.000000000000e+00   0.000000000000e+00   0.000000000000e+00   0.000000000000e+00   0.000000000000e+00   0.000000000000e+00   0.000000000000e+00 
  0.000000000000e+00   0.000000000000e+00   0.000000000000e+00   0.000000000000e+00   0.000000000000e+00   0.000000000000e+00   0.000000000000e+00   0.000000000000e+00   0.000000000000e+00 
  0.000000000000e+00   0.000000000000e+00   0.000000000000e+00   0.000000000000e+00   0.000000000000e+00   0.000000000000e+00   0.000000000000e+00   0.000000000000e+00   0.000000000000e+00 
  0.000000000000e+00   0.000000000000e+00   0.000000000000e+00   0.000000000000e+00   0.000000000000e+00   0.000000000000e+00   0.000000000000e+00   0.000000000000e+00   0.000000000000e+00 
  0.000000000000e+00   0.000000000000e+00   0.000000000000e+00   0.000000000000e+00   0.000000000000e+00   0.000000000000e+00   0.000000000000e+00   0.000000000000e+00   0.000000000000e+00 
  0.000000000000e+00   0.000000000000e+00   0.000000000000e+00   0.000000000000e+00   0.000000000000e+00   0.000000000000e+00   0.000000000000e+00   0.000000000000e+00   0.000000000000e+00 
  0.000000000000e+00   0.000000000000e+00   0.000000000000e+00   0.000000000000e+00   0.000000000000e+00   0.000000000000e+00   0.000000000000e+00   0.000000000000e+00   0.000000000000e+00 
  0.000000000000e+00   0.000000000000e+00   0.000000000000e+00   0.000000000000e+00   0.000000000000e+00   0.000000000000e+00   0.000000000000e+00   0.000000000000e+00   0.000000000000e+00 
  0.000000000000e+00   0.000000000000e+00   0.000000000000e+00   0.000000000000e+00   0.000000000000e+00   0.000000000000e+00   0.000000000000e+00   0.000000000000e+00   0.000000000000e+00 
  0.000000000000e+00   0.000000000000e+00   0.000000000000e+00   0.000000000000e+00   0.000000000000e+00   0.000000000000e+00   0.000000000000e+00   0.000000000000e+00   0.000000000000e+00 
  0.000000000000e+00   0.000000000000e+00   0.000000000000e+00   0.000000000000e+00   0.000000000000e+00   0.000000000000e+00   0.000000000000e+00   0.000000000000e+00   0.000000000000e+00 
  0.000000000000e+00   0.000000000000e+00   0.000000000000e+00   0.000000000000e+00   0.000000000000e+00   0.000000000000e+00   0.000000000000e+00   0.000000000000e+00   0.000000000000e+00 
  0.000000000000e+00   0.000000000000e+00   0.000000000000e+00   0.000000000000e+00   0.000000000000e+00   0.000000000000e+00   0.000000000000e+00   0.000000000000e+00   0.000000000000e+00 
  0.000000000000e+00   0.000000000000e+00   0.000000000000e+00   0.000000000000e+00   0.000000000000e+00   0.000000000000e+00   0.000000000000e+00   0.000000000000e+00   0.000000000000e+00 
  0.000000000000e+00   0.000000000000e+00   0.000000000000e+00   0.000000000000e+00   0.000000000000e+00   0.000000000000e+00   0.000000000000e+00   0.000000000000e+00   0.000000000000e+00 
  0.000000000000e+00   0.000000000000e+00   0.000000000000e+00   0.000000000000e+00   0.000000000000e+00   0.000000000000e+00   0.000000000000e+00   0.000000000000e+00   0.000000000000e+00 
  0.000000000000e+00   0.000000000000e+00   0.000000000000e+00   0.000000000000e+00   0.000000000000e+00   0.000000000000e+00   0.000000000000e+00   0.000000000000e+00   0.000000000000e+00 
  0.000000000000e+00   0.000000000000e+00   0.000000000000e+00   0.000000000000e+00   0.000000000000e+00   0.000000000000e+00   0.000000000000e+00   0.000000000000e+00   0.000000000000e+00 
  0.000000000000e+00   0.000000000000e+00   0.000000000000e+00   0.000000000000e+00   0.000000000000e+00   0.000000000000e+00   0.000000000000e+00   0.000000000000e+00   0.000000000000e+00 
  0.000000000000e+00   0.000000000000e+00   0.000000000000e+00   0.000000000000e+00   0.000000000000e+00   0.000000000000e+00   0.000000000000e+00   0.000000000000e+00   0.000000000000e+00 
  0.000000000000e+00   0.000000000000e+00   0.000000000000e+00   0.000000000000e+00   0.000000000000e+00   0.000000000000e+00   0.000000000000e+00   0.000000000000e+00   0.000000000000e+00 
  0.000000000000e+00   0.000000000000e+00   0.000000000000e+00   0.000000000000e+00   0.000000000000e+00   0.000000000000e+00   0.000000000000e+00   0.000000000000e+00   0.000000000000e+00 
  0.000000000000e+00   0.000000000000e+00   0.000000000000e+00   0.000000000000e+00   0.000000000000e+00   0.000000000000e+00   0.000000000000e+00   0.000000000000e+00   0.000000000000e+00 
  0.000000000000e+00   0.000000000000e+00   0.000000000000e+00   0.000000000000e+00   0.000000000000e+00   0.000000000000e+00   0.000000000000e+00   0.000000000000e+00   0.000000000000e+00 
  0.000000000000e+00   0.000000000000e+00   0.000000000000e+00   0.000000000000e+00   0.000000000000e+00   0.000000000000e+00   0.000000000000e+00   0.000000000000e+00   0.000000000000e+00 
  0.000000000000e+00   0.000000000000e+00   0.000000000000e+00   0.000000000000e+00   0.000000000000e+00   0.000000000000e+00   0.000000000000e+00   0.000000000000e+00   0.000000000000e+00 
  0.000000000000e+00   0.000000000000e+00   0.000000000000e+00   0.000000000000e+00   0.000000000000e+00   0.000000000000e+00   0.000000000000e+00   0.000000000000e+00   0.000000000000e+00 
  0.000000000000e+00   0.000000000000e+00   0.000000000000e+00   0.000000000000e+00   0.000000000000e+00   0.000000000000e+00   0.000000000000e+00   0.000000000000e+00   0.000000000000e+00 
  0.000000000000e+00   0.000000000000e+00   0.000000000000e+00   0.000000000000e+00   0.000000000000e+00   0.000000000000e+00   0.000000000000e+00   0.000000000000e+00   0.000000000000e+00 
  0.000000000000e+00   0.000000000000e+00   0.000000000000e+00   0.000000000000e+00   0.000000000000e+00   0.000000000000e+00   0.000000000000e+00   0.000000000000e+00   0.000000000000e+00 
  0.000000000000e+00   0.000000000000e+00   0.000000000000e+00   0.000000000000e+00   0.000000000000e+00   0.000000000000e+00   0.000000000000e+00   0.000000000000e+00   0.000000000000e+00 
  0.000000000000e+00   0.000000000000e+00   0.000000000000e+00   0.000000000000e+00   0.000000000000e+00   0.000000000000e+00   0.000000000000e+00   0.000000000000e+00   0.000000000000e+00 
  0.000000000000e+00   0.000000000000e+00   0.000000000000e+00   0.000000000000e+00   0.000000000000e+00   0.000000000000e+00   0.000000000000e+00   0.000000000000e+00   0.000000000000e+00 
  0.000000000000e+00   0.000000000000e+00   0.000000000000e+00   0.000000000000e+00   0.000000000000e+00   0.000000000000e+00   0.000000000000e+00   0.000000000000e+00   0.000000000000e+00 
  0.000000000000e+00   0.000000000000e+00   0.000000000000e+00   0.000000000000e+00   0.000000000000e+00   0.000000000000e+00   0.000000000000e+00   0.000000000000e+00   0.000000000000e+00 
  0.000000000000e+00   0.000000000000e+00   0.000000000000e+00   0.000000000000e+00   0.000000000000e+00   0.000000000000e+00   0.000000000000e+00   0.000000000000e+00   0.000000000000e+00 
  0.000000000000e+00   0.000000000000e+00   0.000000000000e+00   0.000000000000e+00   0.000000000000e+00   0.000000000000e+00   0.000000000000e+00   0.000000000000e+00   0.000000000000e+00 
  0.000000000000e+00   0.000000000000e+00   0.000000000000e+00   0.000000000000e+00   0.000000000000e+00   0.000000000000e+00   0.000000000000e+00   0.000000000000e+00   0.000000000000e+00 
  0.000000000000e+00   0.000000000000e+00   0.000000000000e+00   0.000000000000e+00   0.000000000000e+00   0.000000000000e+00   0.000000000000e+00   4.050081253052e+00   4.044584274292e+00 
  3.863856792450e+00   3.838068485260e+00   4.045124053955e+00   4.290231227875e+00   4.491860866547e+00   4.603814601898e+00   4.494629383087e+00   4.294759273529e+00   4.063321113586e+00 
  3.855570316315e+00   3.684190750122e+00   3.533307790756e+00   3.441660642624e+00   3.363188982010e+00   3.346655845642e+00   3.316568613052e+00   0.000000000000e+00   0.000000000000e+00 
  3.781182765961e+00   3.820782661438e+00   3.812232494354e+00   3.935529708862e+00   4.138683795929e+00   4.365272998810e+00   4.570967197418e+00   4.680654525757e+00   4.585123538971e+00 
  4.385895252228e+00   4.148308277130e+00   3.923631906509e+00   3.738803625107e+00   3.595432996750e+00   3.484627485275e+00   3.419530630112e+00   3.374845743179e+00   3.343067646027e+00 
  0.000000000000e+00   0.000000000000e+00   3.718311309814e+00   3.761578798294e+00   3.920072317123e+00   4.042949676514e+00   4.269658088684e+00   4.562527179718e+00   4.814625263214e+00 
  4.946747779846e+00   4.843935489655e+00   4.620000362396e+00   4.352137088776e+00   4.109279155731e+00   3.876786708832e+00   3.696461439133e+00   3.561578989029e+00   3.469671487808e+00 
  3.421078681946e+00   3.416118144989e+00   0.000000000000e+00   0.000000000000e+00   3.880003213882e+00   4.032315731049e+00   4.309573173523e+00   4.291571140289e+00   4.573061943054e+00 
  4.905750751495e+00   5.148047924042e+00   5.304855346680e+00   5.175885677338e+00   4.942096233368e+00   4.722240924835e+00   4.359466075897e+00   4.140286922455e+00   3.896056652069e+00 
  3.732336282730e+00   3.674861192703e+00   3.580012559891e+00   3.579575777054e+00   0.000000000000e+00   0.000000000000e+00   4.073770046234e+00   4.136807441711e+00   4.329011917114e+00 
  4.492308616638e+00   4.828246593475e+00   5.273508071899e+00   5.548360824585e+00   5.659217834473e+00   5.668081283569e+00   5.413696289062e+00   5.093343257904e+00   4.750411033630e+00 
  4.432574748993e+00   4.162138938904e+00   3.973448991776e+00   3.860257148743e+00   3.791208267212e+00   3.787028312683e+00   0.000000000000e+00   0.000000000000e+00   4.412731647491e+00 
  4.490030288696e+00   4.620482921600e+00   4.856179237366e+00   5.179872989655e+00   5.628928661346e+00   6.007183074951e+00   6.186230659485e+00   6.226950645447e+00   5.986559867859e+00 
  5.618655681610e+00   5.200777530670e+00   4.788396835327e+00   4.466225624084e+00   4.241898059845e+00   4.118082523346e+00   4.055911540985e+00   4.054166793823e+00   0.000000000000e+00 
  0.000000000000e+00   4.791766166687e+00   4.861083984375e+00   4.995517730713e+00   5.199706077576e+00   5.496438026428e+00   5.883484840393e+00   6.286948680878e+00   6.585303783417e+00 
  6.705880641937e+00   6.514071941376e+00   6.181774139404e+00   5.744096279144e+00   5.300707340240e+00   4.927161693573e+00   4.680338859558e+00   4.540398597717e+00   4.484130382538e+00 
  4.496170043945e+00   0.000000000000e+00   0.000000000000e+00   5.130387783051e+00   5.197035312653e+00   5.315403461456e+00   5.496074676514e+00   5.758209705353e+00   6.089484691620e+00 
  6.445148944855e+00   6.677215099335e+00   6.820935726166e+00   6.681033611298e+00   6.395126342773e+00   5.973798274994e+00   5.547564506531e+00   5.199909687042e+00   4.973970890045e+00 
  4.833956718445e+00   4.767297744751e+00   4.767580032349e+00   0.000000000000e+00   0.000000000000e+00   5.601090908051e+00   5.649232864380e+00   5.754898071289e+00   5.898698329926e+00 
  6.104628562927e+00   6.377592563629e+00   6.646278858185e+00   6.890527725220e+00   6.977880954742e+00   6.984537124634e+00   6.688731193542e+00   6.365723133087e+00   6.016311645508e+00 
  5.723517417908e+00   5.523857593536e+00   5.373134613037e+00   5.297706604004e+00   5.333681583405e+00   0.000000000000e+00   0.000000000000e+00   6.045660018921e+00   6.089824199677e+00 
  6.179821014404e+00   6.319370746613e+00   6.510005950928e+00   6.715125083923e+00   6.931789398193e+00   7.075203418732e+00   7.131697654724e+00   6.992287635803e+00   6.808144092560e+00 
  6.561916828156e+00   6.295692920685e+00   6.042604446411e+00   5.862099170685e+00   5.766080856323e+00   5.675022125244e+00   5.671380519867e+00   0.000000000000e+00   0.000000000000e+00 
  6.562735080719e+00   6.608705997467e+00   6.698532104492e+00   6.823453903198e+00   6.974112510681e+00   7.123401641846e+00   7.254420280457e+00   7.345224380493e+00   7.351709842682e+00 
  7.273303508759e+00   7.117295265198e+00   6.906951427460e+00   6.706365585327e+00   6.537165164948e+00   6.379231452942e+00   6.243102550507e+00   6.173000812531e+00   6.114105701447e+00 
  0.000000000000e+00   0.000000000000e+00   7.014589309692e+00   7.073866844177e+00   7.159493923187e+00   7.306636333466e+00   7.384387016296e+00   7.525042533875e+00   7.597225666046e+00 
  7.586195468903e+00   7.605159759521e+00   7.478272438049e+00   7.349311828613e+00   7.194989204407e+00   7.020049095154e+00   6.846403598785e+00   6.704080104828e+00   6.588433265686e+00 
  6.524632930756e+00   6.496261119843e+00   0.000000000000e+00   0.000000000000e+00   7.459794044495e+00   7.511817455292e+00   7.606646537781e+00   7.712135314941e+00   7.821776866913e+00 
  7.872791290283e+00   7.901872634888e+00   7.889890670776e+00   7.819453239441e+00   7.724049091339e+00   7.605776786804e+00   7.460304737091e+00   7.321712970734e+00   7.199647903442e+00 
  7.076864242554e+00   6.964658737183e+00   6.881888866425e+00   6.853060245514e+00   0.000000000000e+00   0.000000000000e+00   7.892270088196e+00   7.936224460602e+00   8.027153968811e+00 
  8.138708114624e+00   8.217550277710e+00   8.254684448242e+00   8.246998786926e+00   8.211689949036e+00   8.140260696411e+00   8.050549507141e+00   7.934503555298e+00   7.804943084717e+00 
  7.667220115662e+00   7.527824401855e+00   7.418121814728e+00   7.330660820007e+00   7.295369148254e+00   7.228363990784e+00   0.000000000000e+00   0.000000000000e+00   8.189767837524e+00 
  8.208337783813e+00   8.300951004028e+00   8.392244338989e+00   8.459205627441e+00   8.489009857178e+00   8.470897674561e+00   8.411069869995e+00   8.337001800537e+00   8.229801177979e+00 
  8.115654945374e+00   7.991152286530e+00   7.863059043884e+00   7.748018264771e+00   7.655524730682e+00   7.571729183197e+00   7.554463386536e+00   7.437905788422e+00   0.000000000000e+00 
  0.000000000000e+00   8.377131462097e+00   8.420002937317e+00   8.509579658508e+00   8.591007232666e+00   8.654932975769e+00   8.673712730408e+00   8.652498245239e+00   8.596709251404e+00 
  8.515010833740e+00   8.416666030884e+00   8.306619644165e+00   8.185823440552e+00   8.065352439880e+00   7.953776359558e+00   7.858564853668e+00   7.777051448822e+00   7.740263462067e+00 
  7.686283588409e+00   0.000000000000e+00   0.000000000000e+00   8.705849647522e+00   8.636936187744e+00   8.651590347290e+00   8.726110458374e+00   8.784828186035e+00   8.802405357361e+00 
  8.782866477966e+00   8.727039337158e+00   8.650519371033e+00   8.551664352417e+00   8.442818641663e+00   8.330675125122e+00   8.217478752136e+00   8.109914779663e+00   8.013260841370e+00 
  7.933960914612e+00   7.877547264099e+00   7.856510162354e+00   0.000000000000e+00   0.000000000000e+00   8.405151367188e+00   8.510419845581e+00   8.680586814880e+00   8.777412414551e+00 
  8.830944061279e+00   8.845375061035e+00   8.811868667603e+00   8.754124641418e+00   8.669776916504e+00   8.580136299133e+00   8.472723007202e+00   8.361586570740e+00   8.255265235901e+00 
  8.156740188599e+00   8.064473152161e+00   7.987534999847e+00   7.919539928436e+00   7.893975734711e+00   0.000000000000e+00   0.000000000000e+00   0.000000000000e+00   0.000000000000e+00 
  0.000000000000e+00   0.000000000000e+00   0.000000000000e+00   0.000000000000e+00   0.000000000000e+00   0.000000000000e+00   0.000000000000e+00   0.000000000000e+00   0.000000000000e+00 
  0.000000000000e+00   0.000000000000e+00   0.000000000000e+00   0.000000000000e+00   0.000000000000e+00   0.000000000000e+00   0.000000000000e+00   0.000000000000e+00   0.000000000000e+00 
  0.000000000000e+00   0.000000000000e+00   0.000000000000e+00   0.000000000000e+00   0.000000000000e+00   0.000000000000e+00   0.000000000000e+00   0.000000000000e+00   0.000000000000e+00 
  0.000000000000e+00   0.000000000000e+00   0.000000000000e+00   0.000000000000e+00   0.000000000000e+00   0.000000000000e+00   0.000000000000e+00   0.000000000000e+00   0.000000000000e+00 
  0.000000000000e+00   0.000000000000e+00   2.565402746201e+00   2.601793527603e+00   2.603793144226e+00   2.691509485245e+00   2.887601375580e+00   3.155134201050e+00   3.412943601608e+00 
  3.586060762405e+00   3.430912971497e+00   3.178252696991e+00   2.917122364044e+00   2.723276615143e+00   2.566450595856e+00   2.444388151169e+00   2.349035739899e+00   2.301314115524e+00 
  2.274285793304e+00   2.272155284882e+00   0.000000000000e+00   0.000000000000e+00   2.496592998505e+00   2.553997039795e+00   2.620954275131e+00   2.754955053329e+00   2.945101261139e+00 
  3.203255653381e+00   3.519500970840e+00   3.792713880539e+00   3.518783807755e+00   3.248726129532e+00   2.985694885254e+00   2.752781867981e+00   2.587630271912e+00   2.464663028717e+00 
  2.372099637985e+00   2.351324081421e+00   2.267946958542e+00   2.252696037292e+00   0.000000000000e+00   0.000000000000e+00   2.568321228027e+00   2.609226703644e+00   2.720665693283e+00 
  2.870434284210e+00   3.107844591141e+00   3.442152500153e+00   3.859900474548e+00   4.117774963379e+00   3.866276264191e+00   3.530823230743e+00   3.195069789886e+00   2.936541080475e+00 
  2.718933582306e+00   2.556682348251e+00   2.437907218933e+00   2.366420507431e+00   2.325939893723e+00   2.313440322876e+00   0.000000000000e+00   0.000000000000e+00   2.706555843353e+00 
  2.744547128677e+00   2.904065847397e+00   3.040185451508e+00   3.360556840897e+00   3.830621004105e+00   4.285415649414e+00   4.451222896576e+00   4.305632114410e+00   3.867144823074e+00 
  3.505244255066e+00   3.186983108521e+00   2.936354637146e+00   2.748440980911e+00   2.630452394485e+00   2.542229175568e+00   2.503475666046e+00   2.492962837219e+00   0.000000000000e+00 
  0.000000000000e+00   2.952513933182e+00   2.998971223831e+00   3.133191585541e+00   3.350564002991e+00   3.797496557236e+00   4.627999305725e+00   4.871425628662e+00   4.759359836578e+00 
  4.826329708099e+00   4.357893466949e+00   3.966188669205e+00   3.588692665100e+00   3.227188825607e+00   2.961978197098e+00   2.801552295685e+00   2.693167209625e+00   2.655294179916e+00 
  2.647601604462e+00   0.000000000000e+00   0.000000000000e+00   3.244505405426e+00   3.338485240936e+00   3.482652902603e+00   3.724797487259e+00   4.063909053802e+00   4.847876071930e+00 
  5.273945808411e+00   5.436628818512e+00   5.572807788849e+00   5.147004127502e+00   4.726399898529e+00   4.210193634033e+00   3.686609983444e+00   3.307177543640e+00   3.078365087509e+00 
  2.973670721054e+00   2.939787626266e+00   2.945700883865e+00   0.000000000000e+00   0.000000000000e+00   3.627807855606e+00   3.697132349014e+00   3.805226802826e+00   3.978694200516e+00 
  4.284888744354e+00   4.885987281799e+00   5.428936958313e+00   5.864495754242e+00   6.106773853302e+00   5.665293216705e+00   5.351424694061e+00   4.744997978210e+00   4.153928279877e+00 
  3.676480293274e+00   3.409208059311e+00   3.309676885605e+00   3.325677871704e+00   3.360807657242e+00   0.000000000000e+00   0.000000000000e+00   4.051086902618e+00   4.090383052826e+00 
  4.186323165894e+00   4.339398384094e+00   4.581956386566e+00   5.131640911102e+00   5.490110397339e+00   5.848750591278e+00   6.205514907837e+00   6.086278438568e+00   5.686335563660e+00 
  5.045886516571e+00   4.509325981140e+00   4.101178169250e+00   3.856447696686e+00   3.742006063461e+00   3.708497285843e+00   3.718637228012e+00   0.000000000000e+00   0.000000000000e+00 
  4.488109588623e+00   4.522180557251e+00   4.604663848877e+00   4.748756885529e+00   4.968733787537e+00   5.336421012878e+00   5.596513271332e+00   5.923649311066e+00   6.139920711517e+00 
  6.035875320435e+00   5.704998016357e+00   5.266098976135e+00   4.860378265381e+00   4.534097194672e+00   4.326479911804e+00   4.217772960663e+00   4.155323982239e+00   4.178192138672e+00 
  0.000000000000e+00   0.000000000000e+00   4.984601020813e+00   5.020087242126e+00   5.100248336792e+00   5.234946727753e+00   5.433310031891e+00   5.675230979919e+00   5.898159503937e+00 
  6.131157875061e+00   6.243979930878e+00   6.094323635101e+00   5.883285522461e+00   5.578391551971e+00   5.360090255737e+00   5.056970119476e+00   4.876157283783e+00   4.797902107239e+00 
  4.695086956024e+00   4.711624622345e+00   0.000000000000e+00   0.000000000000e+00   5.544664382935e+00   5.562366962433e+00   5.658856868744e+00   5.802646636963e+00   5.980382919312e+00 
  6.163534164429e+00   6.309712886810e+00   6.415931701660e+00   6.428380966187e+00   6.313302993774e+00   6.123222827911e+00   5.887827873230e+00   5.680228233337e+00   5.492203235626e+00 
  5.334731578827e+00   5.194527626038e+00   5.107023239136e+00   5.081860542297e+00   0.000000000000e+00   0.000000000000e+00   5.999261379242e+00   6.041803836823e+00   6.151604652405e+00 
  6.302441120148e+00   6.452848911285e+00   6.571189880371e+00   6.636132240295e+00   6.658657073975e+00   6.618603706360e+00   6.520123958588e+00   6.380416393280e+00   6.229149818420e+00 
  6.072155952454e+00   5.907696247101e+00   5.745519161224e+00   5.609992504120e+00   5.539183139801e+00   5.541763305664e+00   0.000000000000e+00   0.000000000000e+00   6.513089656830e+00 
  6.549342155457e+00   6.673260211945e+00   6.802323818207e+00   6.935698032379e+00   6.967373371124e+00   6.980443954468e+00   6.957707405090e+00   6.907762527466e+00   6.779935359955e+00 
  6.659502506256e+00   6.514444351196e+00   6.360007286072e+00   6.222863197327e+00   6.090778350830e+00   5.971786022186e+00   5.902230739594e+00   5.883802890778e+00   0.000000000000e+00 
  0.000000000000e+00   6.924303531647e+00   6.968602657318e+00   7.085965156555e+00   7.232578277588e+00   7.330006122589e+00   7.354343414307e+00   7.326893806458e+00   7.265205383301e+00 
  7.190931320190e+00   7.089963912964e+00   6.969187736511e+00   6.830492496490e+00   6.690582752228e+00   6.555732727051e+00   6.444950103760e+00   6.357259273529e+00   6.307023525238e+00 
  6.269879817963e+00   0.000000000000e+00   0.000000000000e+00   7.237837314606e+00   7.261398792267e+00   7.382392883301e+00   7.505912780762e+00   7.587169647217e+00   7.605901718140e+00 
  7.570050716400e+00   7.500872135162e+00   7.411448478699e+00   7.298610210419e+00   7.176037311554e+00   7.042060375214e+00   6.906817436218e+00   6.786756992340e+00   6.692262649536e+00 
  6.607419967651e+00   6.585513591766e+00   6.464595794678e+00   0.000000000000e+00   0.000000000000e+00   7.413328647614e+00   7.474665641785e+00   7.583388328552e+00   7.691605567932e+00 
  7.769618511200e+00   7.786276817322e+00   7.751681327820e+00   7.681815147400e+00   7.591108322144e+00   7.484271526337e+00   7.367497920990e+00   7.241243839264e+00   7.114176273346e+00 
  6.997686386108e+00   6.900515556335e+00   6.818745136261e+00   6.789574623108e+00   6.695273399353e+00   0.000000000000e+00   0.000000000000e+00   7.636366367340e+00   7.652362346649e+00 
  7.712187290192e+00   7.815399169922e+00   7.886101722717e+00   7.906011581421e+00   7.880020141602e+00   7.816414833069e+00   7.725159645081e+00   7.620946884155e+00   7.509315967560e+00 
  7.392435550690e+00   7.277565479279e+00   7.163064479828e+00   7.063425064087e+00   6.979100227356e+00   6.918613433838e+00   6.901154518127e+00   0.000000000000e+00   0.000000000000e+00 
  7.506774902344e+00   7.594709873199e+00   7.758038043976e+00   7.860312461853e+00   7.922114372253e+00   7.933580875397e+00   7.900227546692e+00   7.839118003845e+00   7.757730960846e+00 
  7.659889221191e+00   7.549879550934e+00   7.439354419708e+00   7.320088386536e+00   7.216743946075e+00   7.120700359344e+00   7.042507648468e+00   6.972985267639e+00   6.945410728455e+00 
  0.000000000000e+00   0.000000000000e+00   0.000000000000e+00   0.000000000000e+00   0.000000000000e+00   0.000000000000e+00   0.000000000000e+00   0.000000000000e+00   0.000000000000e+00 
  0.000000000000e+00   0.000000000000e+00   0.000000000000e+00   0.000000000000e+00   0.000000000000e+00   0.000000000000e+00   0.000000000000e+00   0.000000000000e+00   0.000000000000e+00 
  0.000000000000e+00   0.000000000000e+00   0.000000000000e+00   0.000000000000e+00   0.000000000000e+00   0.000000000000e+00   0.000000000000e+00   0.000000000000e+00   0.000000000000e+00 
  0.000000000000e+00   0.000000000000e+00   0.000000000000e+00   0.000000000000e+00   0.000000000000e+00   0.000000000000e+00   0.000000000000e+00   0.000000000000e+00   0.000000000000e+00 
  0.000000000000e+00   0.000000000000e+00   0.000000000000e+00   0.000000000000e+00   0.000000000000e+00   0.000000000000e+00   1.250300645828e+00   1.294010043144e+00   1.377021551132e+00 
  1.523295283318e+00   1.792865037918e+00   2.128255844116e+00   2.438725233078e+00   2.569804430008e+00   2.386776924133e+00   2.062122106552e+00   1.731431007385e+00   1.511982321739e+00 
  1.373733878136e+00   1.278580665588e+00   1.193518638611e+00   1.200090169907e+00   1.126232028008e+00   1.172243356705e+00   0.000000000000e+00   0.000000000000e+00   1.369148492813e+00 
  1.377473354340e+00   1.431808590889e+00   1.655552506447e+00   2.052242755890e+00   2.384953260422e+00   2.659028530121e+00   3.546936273575e+00   2.694492578506e+00   2.389181852341e+00 
  1.994768142700e+00   1.619843602180e+00   1.436597108841e+00   1.322839736938e+00   1.268283963203e+00   1.377843499184e+00   1.189389705658e+00   1.251621127129e+00   0.000000000000e+00 
  0.000000000000e+00   1.374568462372e+00   1.403733015060e+00   1.500538587570e+00   1.652453422546e+00   1.918174505234e+00   2.093708515167e+00   2.713763475418e+00   3.729605197906e+00 
  2.921691656113e+00   2.504071950912e+00   2.052596330643e+00   1.705489516258e+00   1.496446132660e+00   1.352993726730e+00   1.257428050041e+00   1.252788782120e+00   1.194631099701e+00 
  1.220138192177e+00   0.000000000000e+00   0.000000000000e+00   1.504214048386e+00   1.535056233406e+00   1.631668925285e+00   1.790058016777e+00   2.086383342743e+00   2.400206327438e+00 
  3.411667585373e+00   3.682783842087e+00   3.638919830322e+00   2.658174276352e+00   2.317252397537e+00   1.935590386391e+00   1.661291480064e+00   1.499796032906e+00   1.408744812012e+00 
  1.355426311493e+00   1.338262319565e+00   1.316303491592e+00   0.000000000000e+00   0.000000000000e+00   1.663258671761e+00   1.713191986084e+00   1.808732748032e+00   1.992643952370e+00 
  2.294883251190e+00   3.027233600616e+00   4.117380619049e+00   3.531070947647e+00   4.223631381989e+00   2.998656272888e+00   2.732277154922e+00   2.270107984543e+00   1.852060556412e+00 
  1.602348923683e+00   1.469910383224e+00   1.410647273064e+00   1.384312152863e+00   1.371428847313e+00   0.000000000000e+00   0.000000000000e+00   1.975490331650e+00   2.157567739487e+00 
  2.226396322250e+00   2.445816040039e+00   2.343562841415e+00   3.791987180710e+00   4.887722015381e+00   4.710379123688e+00   5.403375148773e+00   4.354620456696e+00   3.884646892548e+00 
  3.189481973648e+00   2.351518392563e+00   1.927148461342e+00   1.734518647194e+00   1.667007565498e+00   1.681468486786e+00   1.692994117737e+00   0.000000000000e+00   0.000000000000e+00 