# vtk DataFile Version 2.0
Written using VisIt writer
ASCII
DATASET RECTILINEAR_GRID
DIMENSIONS 20 20 20
X_COORDINATES 20 float
  0.000000000000e+00   1.000000000000e+00   2.000000000000e+00   3.000000000000e+00   4.000000000000e+00   5.000000000000e+00   6.000000000000e+00   7.000000000000e+00   8.000000000000e+00 
  9.000000000000e+00   1.000000000000e+01   1.100000000000e+01   1.200000000000e+01   1.300000000000e+01   1.400000000000e+01   1.500000000000e+01   1.600000000000e+01   1.700000000000e+01 
  1.800000000000e+01   1.900000000000e+01 
Y_COORDINATES 20 float
  0.000000000000e+00   1.000000000000e+00   2.000000000000e+00   3.000000000000e+00   4.000000000000e+00   5.000000000000e+00   6.000000000000e+00   7.000000000000e+00   8.000000000000e+00 
  9.000000000000e+00   1.000000000000e+01   1.100000000000e+01   1.200000000000e+01   1.300000000000e+01   1.400000000000e+01   1.500000000000e+01   1.600000000000e+01   1.700000000000e+01 
  1.800000000000e+01   1.900000000000e+01 
Z_COORDINATES 20 float
  0.000000000000e+00   1.000000000000e+00   2.000000000000e+00   3.000000000000e+00   4.000000000000e+00   5.000000000000e+00   6.000000000000e+00   7.000000000000e+00   8.000000000000e+00 
  9.000000000000e+00   1.000000000000e+01   1.100000000000e+01   1.200000000000e+01   1.300000000000e+01   1.400000000000e+01   1.500000000000e+01   1.600000000000e+01   1.700000000000e+01 
  1.800000000000e+01   1.900000000000e+01 
CELL_DATA 6859
POINT_DATA 8000
SCALARS pressure float
LOOKUP_TABLE default
  0.000000000000e+00   0.000000000000e+00   0.000000000000e+00   0.000000000000e+00   0.000000000000e+00   0.000000000000e+00   0.000000000000e+00   0.000000000000e+00   0.000000000000e+00 
  0.000000000000e+00   0.000000000000e+00   0.000000000000e+00   0.000000000000e+00   0.000000000000e+00   0.000000000000e+00   0.000000000000e+00   0.000000000000e+00   0.000000000000e+00 
  0.000000000000e+00   0.000000000000e+00   0.000000000000e+00   0.000000000000e+00   0.000000000000e+00   0.000000000000e+00   0.000000000000e+00   0.000000000000e+00   0.000000000000e+00 
  0.000000000000e+00   0.000000000000e+00   0.000000000000e+00   0.000000000000e+00   0.000000000000e+00   0.000000000000e+00   0.000000000000e+00   0.000000000000e+00   0.000000000000e+00 
  0.000000000000e+00   0.000000000000e+00   0.000000000000e+00   0.000000000000e+00   0.000000000000e+00   0.000000000000e+00   0.000000000000e+00   0.000000000000e+00   0.000000000000e+00 
  0.000000000000e+00   0.000000000000e+00   0.000000000000e+00   0.000000000000e+00   0.000000000000e+00   0.000000000000e+00   0.000000000000e+00   0.000000000000e+00   0.000000000000e+00 
  0.000000000000e+00   0.000000000000e+00   0.000000000000e+00   0.000000000000e+00   0.000000000000e+00   0.000000000000e+00   0.000000000000e+00   0.000000000000e+00   0.000000000000e+00 
  0.000000000000e+00   0.000000000000e+00   0.000000000000e+00   0.000000000000e+00   0.000000000000e+00   0.000000000000e+00   0.000000000000e+00   0.000000000000e+00   0.000000000000e+00 
  0.000000000000e+00   0.000000000000e+00   0.000000000000e+00   0.000000000000e+00   0.000000000000e+00   0.000000000000e+00   0.000000000000e+00   0.000000000000e+00   0.000000000000e+00 
  0.000000000000e+00   0.000000000000e+00   0.000000000000e+00   0.000000000000e+00   0.000000000000e+00   0.000000000000e+00   0.000000000000e+00   0.000000000000e+00   0.000000000000e+00 
  0.000000000000e+00   0.000000000000e+00   0.000000000000e+00   0.000000000000e+00   0.000000000000e+00   0.000000000000e+00   0.000000000000e+00   0.000000000000e+00   0.000000000000e+00 
  0.000000000000e+00   0.000000000000e+00   0.000000000000e+00   0.000000000000e+00   0.000000000000e+00   0.000000000000e+00   0.000000000000e+00   0.000000000000e+00   0.000000000000e+00 
  0.000000000000e+00   0.000000000000e+00   0.000000000000e+00   0.000000000000e+00   0.000000000000e+00   0.000000000000e+00   0.000000000000e+00   0.000000000000e+00   0.000000000000e+00 
  0.000000000000e+00   0.000000000000e+00   0.000000000000e+00   0.000000000000e+00   0.000000000000e+00   0.000000000000e+00   0.000000000000e+00   0.000000000000e+00   0.000000000000e+00 
  0.000000000000e+00   0.000000000000e+00   0.000000000000e+00   0.000000000000e+00   0.000000000000e+00   0.000000000000e+00   0.000000000000e+00   0.000000000000e+00   0.000000000000e+00 
  0.000000000000e+00   0.000000000000e+00   0.000000000000e+00   0.000000000000e+00   0.000000000000e+00   0.000000000000e+00   0.000000000000e+00   0.000000000000e+00   0.000000000000e+00 
  0.000000000000e+00   0.000000000000e+00   0.000000000000e+00   0.000000000000e+00   0.000000000000e+00   0.000000000000e+00   0.000000000000e+00   0.000000000000e+00   0.000000000000e+00 
  0.000000000000e+00   0.000000000000e+00   0.000000000000e+00   0.000000000000e+00   0.000000000000e+00   0.000000000000e+00   0.000000000000e+00   0.000000000000e+00   0.000000000000e+00 
  0.000000000000e+00   0.000000000000e+00   0.000000000000e+00   0.000000000000e+00   0.000000000000e+00   0.000000000000e+00   0.000000000000e+00   0.000000000000e+00   0.000000000000e+00 
  0.000000000000e+00   0.000000000000e+00   0.000000000000e+00   0.000000000000e+00   0.000000000000e+00   0.000000000000e+00   0.000000000000e+00   0.000000000000e+00   0.000000000000e+00 
  0.000000000000e+00   0.000000000000e+00   0.000000000000e+00   0.000000000000e+00   0.000000000000e+00   0.000000000000e+00   0.000000000000e+00   0.000000000000e+00   0.000000000000e+00 
  0.000000000000e+00   0.000000000000e+00   0.000000000000e+00   0.000000000000e+00   0.000000000000e+00   0.000000000000e+00   0.000000000000e+00   0.000000000000e+00   0.000000000000e+00 
  0.000000000000e+00   0.000000000000e+00   0.000000000000e+00   0.000000000000e+00   0.000000000000e+00   0.000000000000e+00   0.000000000000e+00   0.000000000000e+00   0.000000000000e+00 
  0.000000000000e+00   0.000000000000e+00   0.000000000000e+00   0.000000000000e+00   0.000000000000e+00   0.000000000000e+00   0.000000000000e+00   0.000000000000e+00   0.000000000000e+00 
  0.000000000000e+00   0.000000000000e+00   0.000000000000e+00   0.000000000000e+00   0.000000000000e+00   0.000000000000e+00   0.000000000000e+00   0.000000000000e+00   0.000000000000e+00 
  0.000000000000e+00   0.000000000000e+00   0.000000000000e+00   0.000000000000e+00   0.000000000000e+00   0.000000000000e+00   0.000000000000e+00   0.000000000000e+00   0.000000000000e+00 
  0.000000000000e+00   0.000000000000e+00   0.000000000000e+00   0.000000000000e+00   0.000000000000e+00   0.000000000000e+00   0.000000000000e+00   0.000000000000e+00   0.000000000000e+00 
  0.000000000000e+00   0.000000000000e+00   0.000000000000e+00   0.000000000000e+00   0.000000000000e+00   0.000000000000e+00   0.000000000000e+00   0.000000000000e+00   0.000000000000e+00 
  0.000000000000e+00   0.000000000000e+00   0.000000000000e+00   0.000000000000e+00   0.000000000000e+00   0.000000000000e+00   0.000000000000e+00   0.000000000000e+00   0.000000000000e+00 
  0.000000000000e+00   0.000000000000e+00   0.000000000000e+00   0.000000000000e+00   0.000000000000e+00   0.000000000000e+00   0.000000000000e+00   0.000000000000e+00   0.000000000000e+00 
  0.000000000000e+00   0.000000000000e+00   0.000000000000e+00   0.000000000000e+00   0.000000000000e+00   0.000000000000e+00   0.000000000000e+00   0.000000000000e+00   0.000000000000e+00 
  0.000000000000e+00   0.000000000000e+00   0.000000000000e+00   0.000000000000e+00   0.000000000000e+00   0.000000000000e+00   0.000000000000e+00   0.000000000000e+00   0.000000000000e+00 
  0.000000000000e+00   0.000000000000e+00   0.000000000000e+00   0.000000000000e+00   0.000000000000e+00   0.000000000000e+00   0.000000000000e+00   0.000000000000e+00   0.000000000000e+00 
  0.000000000000e+00   0.000000000000e+00   0.000000000000e+00   0.000000000000e+00   0.000000000000e+00   0.000000000000e+00   0.000000000000e+00   0.000000000000e+00   0.000000000000e+00 
  0.000000000000e+00   0.000000000000e+00   0.000000000000e+00   0.000000000000e+00   0.000000000000e+00   0.000000000000e+00   0.000000000000e+00   0.000000000000e+00   0.000000000000e+00 
  0.000000000000e+00   0.000000000000e+00   0.000000000000e+00   0.000000000000e+00   0.000000000000e+00   0.000000000000e+00   0.000000000000e+00   0.000000000000e+00   0.000000000000e+00 
  0.000000000000e+00   0.000000000000e+00   0.000000000000e+00   0.000000000000e+00   0.000000000000e+00   0.000000000000e+00   0.000000000000e+00   0.000000000000e+00   0.000000000000e+00 
  0.000000000000e+00   0.000000000000e+00   0.000000000000e+00   0.000000000000e+00   0.000000000000e+00   0.000000000000e+00   0.000000000000e+00   0.000000000000e+00   0.000000000000e+00 
  0.000000000000e+00   0.000000000000e+00   0.000000000000e+00   0.000000000000e+00   0.000000000000e+00   0.000000000000e+00   0.000000000000e+00   0.000000000000e+00   0.000000000000e+00 
  0.000000000000e+00   0.000000000000e+00   0.000000000000e+00   0.000000000000e+00   0.000000000000e+00   0.000000000000e+00   0.000000000000e+00   0.000000000000e+00   0.000000000000e+00 
  0.000000000000e+00   0.000000000000e+00   0.000000000000e+00   0.000000000000e+00   0.000000000000e+00   0.000000000000e+00   0.000000000000e+00   0.000000000000e+00   0.000000000000e+00 
  0.000000000000e+00   0.000000000000e+00   0.000000000000e+00   0.000000000000e+00   0.000000000000e+00   0.000000000000e+00   0.000000000000e+00   0.000000000000e+00   0.000000000000e+00 
  0.000000000000e+00   0.000000000000e+00   0.000000000000e+00   0.000000000000e+00   0.000000000000e+00   0.000000000000e+00   0.000000000000e+00   0.000000000000e+00   0.000000000000e+00 
  0.000000000000e+00   0.000000000000e+00   0.000000000000e+00   0.000000000000e+00   0.000000000000e+00   0.000000000000e+00   0.000000000000e+00   0.000000000000e+00   0.000000000000e+00 
  0.000000000000e+00   0.000000000000e+00   0.000000000000e+00   0.000000000000e+00   0.000000000000e+00   0.000000000000e+00   0.000000000000e+00   0.000000000000e+00   0.000000000000e+00 
  0.000000000000e+00   0.000000000000e+00   0.000000000000e+00   0.000000000000e+00   0.000000000000e+00   0.000000000000e+00   0.000000000000e+00   0.000000000000e+00   0.000000000000e+00 
  0.000000000000e+00   0.000000000000e+00   0.000000000000e+00   0.000000000000e+00   0.000000000000e+00   0.000000000000e+00   0.000000000000e+00   4.552882671356e+00   4.513206005096e+00 
  4.717717647552e+00   4.337498664856e+00   4.318498134613e+00   4.334645271301e+00   4.047790527344e+00   3.862789630890e+00   3.596685647964e+00   3.544797658920e+00   3.659883022308e+00 
  3.935560703278e+00   4.197446823120e+00   4.076326847076e+00   3.881453752518e+00   3.605563640594e+00   3.442574262619e+00   3.303805351257e+00   0.000000000000e+00   0.000000000000e+00 
  4.587508678436e+00   4.380703926086e+00   4.324846744537e+00   4.235129833221e+00   4.261644840240e+00   4.159998416901e+00   3.833323955536e+00   3.681985139847e+00   3.587610483170e+00 
  3.620425939560e+00   3.782361745834e+00   4.067311763763e+00   4.257420063019e+00   4.154672145844e+00   3.862147808075e+00   3.588612318039e+00   3.418442487717e+00   3.323835849762e+00 
  0.000000000000e+00   0.000000000000e+00   4.171973228455e+00   4.172343254089e+00   4.051190853119e+00   4.014702796936e+00   4.158971786499e+00   3.974944353104e+00   3.769524335861e+00 
  3.892710208893e+00   3.629352092743e+00   3.614744901657e+00   3.955979108810e+00   3.910791635513e+00   4.080736637115e+00   3.932278156281e+00   3.677462100983e+00   3.500924110413e+00 
  3.328788042068e+00   3.301522731781e+00   0.000000000000e+00   0.000000000000e+00   3.975321531296e+00   4.468018531799e+00   4.245978832245e+00   4.145169734955e+00   4.488562583923e+00 
  4.240994930267e+00   4.092386245728e+00   4.600318908691e+00   3.828151941299e+00   3.961370468140e+00   4.821126937866e+00   4.258007526398e+00   4.318401813507e+00   3.927332639694e+00 
  3.595355272293e+00   3.779251575470e+00   3.463919401169e+00   3.428069353104e+00   0.000000000000e+00   0.000000000000e+00   3.835237026215e+00   3.993194580078e+00   3.953028678894e+00 
  3.966521978378e+00   4.206882953644e+00   4.093986511230e+00   3.938742160797e+00   4.140753269196e+00   3.836721420288e+00   3.802644491196e+00   4.127348899841e+00   3.858363628387e+00 
  3.953868389130e+00   3.803987979889e+00   3.665405511856e+00   3.636927843094e+00   3.518997669220e+00   3.513617038727e+00   0.000000000000e+00   0.000000000000e+00   3.960383892059e+00 
  3.953586816788e+00   3.985797643661e+00   4.085528373718e+00   4.196170806885e+00   4.270707607269e+00   4.212724685669e+00   4.101140022278e+00   4.062094688416e+00   4.041012287140e+00 
  4.014408111572e+00   3.986485242844e+00   3.965863227844e+00   3.897874355316e+00   3.808554172516e+00   3.739624977112e+00   3.702363967896e+00   3.682867765427e+00   0.000000000000e+00 
  0.000000000000e+00   4.175961494446e+00   4.187653541565e+00   4.231895923615e+00   4.299828052521e+00   4.397227287292e+00   4.501268863678e+00   4.463038444519e+00   4.411725521088e+00 
  4.384737968445e+00   4.481269836426e+00   4.473903656006e+00   4.407877922058e+00   4.323890209198e+00   4.213128089905e+00   4.155597209930e+00   4.088609218597e+00   4.041521072388e+00 
  4.040257930756e+00   0.000000000000e+00   0.000000000000e+00   4.351172924042e+00   4.370961666107e+00   4.405585289001e+00   4.468396186829e+00   4.580051898956e+00   4.678482055664e+00 
  4.695705413818e+00   4.678906440735e+00   4.786733627319e+00   5.092686176300e+00   4.843748092651e+00   4.591281890869e+00   4.507923126221e+00   4.417936325073e+00   4.365919113159e+00 
  4.261280059814e+00   4.211386680603e+00   4.308623313904e+00   0.000000000000e+00   0.000000000000e+00   4.677410602570e+00   4.680662631989e+00   4.695892810822e+00   4.742802619934e+00 
  4.811967372894e+00   4.915606975555e+00   4.938842773438e+00   4.964099884033e+00   5.402311325073e+00   6.626777648926e+00   5.865465164185e+00   5.287693023682e+00   5.247369289398e+00 
  5.129586219788e+00   5.098958969116e+00   4.755570888519e+00   4.663729667664e+00   5.124887466431e+00   0.000000000000e+00   0.000000000000e+00   4.973877429962e+00   4.963800907135e+00 
  5.019185543060e+00   5.071524143219e+00   5.153387069702e+00   5.236918449402e+00   5.321005821228e+00   5.339923381805e+00   5.488543510437e+00   5.924005508423e+00   5.632381916046e+00 
  5.527442455292e+00   5.695852279663e+00   5.385100364685e+00   5.311614513397e+00   5.359198093414e+00   5.288636684418e+00   5.455086231232e+00   0.000000000000e+00   0.000000000000e+00 
  5.260459899902e+00   5.265477180481e+00   5.281926631927e+00   5.356087207794e+00   5.374859809875e+00   5.489261627197e+00   5.569804191589e+00   5.619235992432e+00   5.747481346130e+00 
  5.764150619507e+00   5.804190158844e+00   5.858247280121e+00   5.946823596954e+00   5.817761421204e+00   5.744935512543e+00   5.759530067444e+00   5.706444740295e+00   5.638689994812e+00 
  0.000000000000e+00   0.000000000000e+00   5.562648296356e+00   5.562890052795e+00   5.617536544800e+00   5.906918525696e+00   5.635702133179e+00   5.950205802917e+00   6.035826206207e+00 
  5.882476329803e+00   6.338792800903e+00   6.191678524017e+00   6.222815036774e+00   6.318243980408e+00   6.324292182922e+00   6.265453815460e+00   6.214438438416e+00   6.151939392090e+00 
  6.111132621765e+00   6.081138134003e+00   0.000000000000e+00   0.000000000000e+00   5.794591903687e+00   5.715498447418e+00   5.753843307495e+00   5.884438991547e+00   5.905536651611e+00 
  6.027699470520e+00   6.115019321442e+00   6.099463462830e+00   6.312583446503e+00   6.302045822144e+00   6.427581787109e+00   6.510003089905e+00   6.560425281525e+00   6.582327365875e+00 
  6.550225257874e+00   6.488133907318e+00   6.418379306793e+00   6.391950607300e+00   0.000000000000e+00   0.000000000000e+00   6.032583236694e+00   6.031566619873e+00   6.084585666656e+00 
  6.135164737701e+00   6.194905757904e+00   6.249892711639e+00   6.323810100555e+00   6.396757602692e+00   6.475037574768e+00   6.580786228180e+00   6.694852828979e+00   6.763587474823e+00 
  6.824300765991e+00   6.847916126251e+00   6.828743934631e+00   6.783337593079e+00   6.760749816895e+00   6.689157485962e+00   0.000000000000e+00   0.000000000000e+00   6.308748722076e+00 
  6.293300628662e+00   6.333721160889e+00   6.376335620880e+00   6.408759593964e+00   6.467818260193e+00   6.532786846161e+00   6.606031417847e+00   6.687474250793e+00   6.772588253021e+00 
  6.848356723785e+00   6.926394462585e+00   6.985733509064e+00   7.016868114471e+00   7.024294853210e+00   6.996717453003e+00   7.021998405457e+00   6.880664348602e+00   0.000000000000e+00 
  0.000000000000e+00   6.460121631622e+00   6.467010498047e+00   6.501755237579e+00   6.527710437775e+00   6.567095279694e+00   6.610991954803e+00   6.667834281921e+00   6.737700939178e+00 
  6.812886714935e+00   6.887670516968e+00   6.965862274170e+00   7.039764881134e+00   7.100744724274e+00   7.137888908386e+00   7.150422096252e+00   7.134073734283e+00   7.142337799072e+00 
  7.078052520752e+00   0.000000000000e+00   0.000000000000e+00   6.668133735657e+00   6.614492416382e+00   6.612617015839e+00   6.637431621552e+00   6.669456958771e+00   6.710105419159e+00 
  6.767993927002e+00   6.827440738678e+00   6.901878833771e+00   6.973862648010e+00   7.045497417450e+00   7.115558624268e+00   7.172145843506e+00   7.209441184998e+00   7.226961612701e+00 
  7.227355480194e+00   7.214364051819e+00   7.202396392822e+00   0.000000000000e+00   0.000000000000e+00   6.595812797546e+00   6.617048740387e+00   6.662492275238e+00   6.706101417542e+00 
  6.740090847015e+00   6.779693126678e+00   6.815788745880e+00   6.875380039215e+00   6.936451911926e+00   7.011736392975e+00   7.081487178802e+00   7.147878646851e+00   7.208768844604e+00 
  7.254373073578e+00   7.270767211914e+00   7.270875453949e+00   7.257097721100e+00   7.247536182404e+00   0.000000000000e+00   0.000000000000e+00   0.000000000000e+00   0.000000000000e+00 
  0.000000000000e+00   0.000000000000e+00   0.000000000000e+00   0.000000000000e+00   0.000000000000e+00   0.000000000000e+00   0.000000000000e+00   0.000000000000e+00   0.000000000000e+00 
  0.000000000000e+00   0.000000000000e+00   0.000000000000e+00   0.000000000000e+00   0.000000000000e+00   0.000000000000e+00   0.000000000000e+00   0.000000000000e+00   0.000000000000e+00 
  0.000000000000e+00   0.000000000000e+00   0.000000000000e+00   0.000000000000e+00   0.000000000000e+00   0.000000000000e+00   0.000000000000e+00   0.000000000000e+00   0.000000000000e+00 
  0.000000000000e+00   0.000000000000e+00   0.000000000000e+00   0.000000000000e+00   0.000000000000e+00   0.000000000000e+00   0.000000000000e+00   0.000000000000e+00   0.000000000000e+00 
  0.000000000000e+00   0.000000000000e+00   3.604239702225e+00   3.281585931778e+00   3.118206024170e+00   3.047225952148e+00   3.134145259857e+00   2.970730066299e+00   2.628993511200e+00 
  2.477576017380e+00   2.366681098938e+00   2.333483457565e+00   2.438488006592e+00   2.907774925232e+00   3.204421997070e+00   3.144260644913e+00   2.789960861206e+00   2.484080314636e+00 
  2.236391782761e+00   2.159392833710e+00   0.000000000000e+00   0.000000000000e+00   4.134449481964e+00   3.577635526657e+00   3.175214052200e+00   3.331165790558e+00   3.567862033844e+00 
  3.224723339081e+00   2.668714761734e+00   2.505494117737e+00   2.511918544769e+00   2.560810327530e+00   2.642797946930e+00   3.463254690170e+00   3.810116052628e+00   3.605131626129e+00 
  3.054376363754e+00   2.683105230331e+00   2.447383642197e+00   2.276632070541e+00   0.000000000000e+00   0.000000000000e+00   3.288823366165e+00   3.015032052994e+00   2.809767484665e+00 
  2.864727973938e+00   3.000685930252e+00   2.820264339447e+00   2.572676897049e+00   2.521180152893e+00   2.383915424347e+00   2.332303047180e+00   2.473602056503e+00   2.791459798813e+00 
  3.039391040802e+00   2.962115526199e+00   2.647181987762e+00   2.414677858353e+00   2.256898164749e+00   2.223612070084e+00   0.000000000000e+00   0.000000000000e+00   2.770562887192e+00 
  2.842399120331e+00   2.759873390198e+00   2.762475252151e+00   2.936209917068e+00   2.803331851959e+00   2.632034778595e+00   2.763262510300e+00   2.479242563248e+00   2.428108930588e+00 
  2.688727378845e+00   2.617798805237e+00   2.775457143784e+00   2.699353218079e+00   2.560260295868e+00   2.488775491714e+00   2.353912591934e+00   2.309833526611e+00   0.000000000000e+00 
  0.000000000000e+00   2.779701471329e+00   2.756566286087e+00   2.760567426682e+00   2.828624010086e+00   2.989311456680e+00   3.009935855865e+00   2.836388111115e+00   2.771309375763e+00 
  2.638608932495e+00   2.589152336121e+00   2.665958642960e+00   2.629794120789e+00   2.700306892395e+00   2.654161453247e+00   2.585475206375e+00   2.489145994186e+00   2.441535234451e+00 
  2.419253110886e+00   0.000000000000e+00   0.000000000000e+00   2.829785585403e+00   2.828614711761e+00   2.878683328629e+00   3.008312702179e+00   3.192493438721e+00   3.420544862747e+00 
  3.138754844666e+00   2.959412336349e+00   2.885110139847e+00   2.872817993164e+00   2.878271102905e+00   2.846790075302e+00   2.826235294342e+00   2.770524501801e+00   2.704032421112e+00 
  2.658553123474e+00   2.629298925400e+00   2.601973533630e+00   0.000000000000e+00   0.000000000000e+00   2.988434314728e+00   2.973966121674e+00   2.977815628052e+00   3.031548023224e+00 
  3.186280488968e+00   3.517320394516e+00   3.423399686813e+00   3.192674398422e+00   3.122734785080e+00   3.134273767471e+00   3.125064134598e+00   3.072716236115e+00   3.007219552994e+00 
  2.921935796738e+00   2.847583293915e+00   2.818527698517e+00   2.793703079224e+00   2.780788898468e+00   0.000000000000e+00   0.000000000000e+00   3.306347370148e+00   3.291813373566e+00 
  3.298065185547e+00   3.356775045395e+00   3.488074064255e+00   3.715413331985e+00   3.698410034180e+00   3.569450378418e+00   3.546480655670e+00   3.667440176010e+00   3.561911821365e+00 
  3.359270334244e+00   3.266782283783e+00   3.167618989944e+00   3.104987382889e+00   3.085621595383e+00   3.054728269577e+00   3.067753553391e+00   0.000000000000e+00   0.000000000000e+00 
  3.626538276672e+00   3.594932317734e+00   3.621248483658e+00   3.693348646164e+00   3.774654626846e+00   3.910074472427e+00   3.872644901276e+00   3.821090936661e+00   3.939695835114e+00 
  4.341372966766e+00   4.143958568573e+00   3.929557323456e+00   4.028090000153e+00   3.754416465759e+00   3.695064544678e+00   3.756356954575e+00   3.706820726395e+00   3.812492132187e+00 
  0.000000000000e+00   0.000000000000e+00   4.005137920380e+00   3.937443733215e+00   4.033252716064e+00   4.073174476624e+00   4.109301090240e+00   4.229703426361e+00   4.219279766083e+00 
  4.265806674957e+00   4.384891986847e+00   4.507921695709e+00   4.726615428925e+00   4.949070453644e+00   5.408072471619e+00   4.662073135376e+00   4.454766750336e+00   4.865604877472e+00 
  4.842092990875e+00   4.847623825073e+00   0.000000000000e+00   0.000000000000e+00   4.280525207520e+00   4.237659931183e+00   4.287821769714e+00   4.339891910553e+00   4.387261867523e+00 
  4.479896545410e+00   4.525039196014e+00   4.613867282867e+00   4.743523597717e+00   4.840196132660e+00   4.979510784149e+00   5.063652992249e+00   5.251820564270e+00   4.970864295959e+00 
  4.854211330414e+00   4.938462734222e+00   4.876329421997e+00   4.831489562988e+00   0.000000000000e+00   0.000000000000e+00   4.665653705597e+00   4.529718399048e+00   4.507934093475e+00 
  4.578138828278e+00   4.584033966064e+00   4.711943149567e+00   4.800095081329e+00   4.813963890076e+00   5.008188724518e+00   5.064023971558e+00   5.181259155273e+00   5.273942947388e+00 
  5.352251052856e+00   5.361004829407e+00   5.273519992828e+00   5.157227516174e+00   5.048750877380e+00   5.039592742920e+00   0.000000000000e+00   0.000000000000e+00   5.508504867554e+00 
  5.100736618042e+00   4.962214469910e+00   4.860017299652e+00   5.015830516815e+00   5.039278030396e+00   5.140798568726e+00   5.226696968079e+00   5.465841293335e+00   5.412808418274e+00 
  5.540035247803e+00   5.651596546173e+00   5.711404323578e+00   5.730210781097e+00   5.659738540649e+00   5.572091102600e+00   5.486125946045e+00   5.463699340820e+00   0.000000000000e+00 
  0.000000000000e+00   5.274115562439e+00   5.144994258881e+00   5.150467872620e+00   5.153697967529e+00   5.235137939453e+00   5.276777267456e+00   5.359622955322e+00   5.428218364716e+00 
  5.552012443542e+00   5.624565601349e+00   5.747204303741e+00   5.848219871521e+00   5.929174900055e+00   5.967702388763e+00   5.933477401733e+00   5.869292736053e+00   5.807939052582e+00 
  5.758862972260e+00   0.000000000000e+00   0.000000000000e+00   5.326166629791e+00   5.306281566620e+00   5.353407382965e+00   5.391381740570e+00   5.424127101898e+00   5.476662158966e+00 
  5.541479110718e+00   5.616031646729e+00   5.697885036469e+00   5.792634487152e+00   5.885381698608e+00   5.976734638214e+00   6.054213523865e+00   6.098738193512e+00   6.100762367249e+00 
  6.062712192535e+00   6.057631969452e+00   5.934508800507e+00   0.000000000000e+00   0.000000000000e+00   5.521762847900e+00   5.532679080963e+00   5.550477504730e+00   5.566624164581e+00 
  5.602770328522e+00   5.645770549774e+00   5.702726364136e+00   5.773365974426e+00   5.854178905487e+00   5.931803703308e+00   6.013391494751e+00   6.094713687897e+00   6.163159370422e+00 
  6.202571868896e+00   6.211752414703e+00   6.194622993469e+00   6.202664375305e+00   6.104613304138e+00   0.000000000000e+00   0.000000000000e+00   5.669470787048e+00   5.661463260651e+00 
  5.663807392120e+00   5.687094211578e+00   5.716748714447e+00   5.759538650513e+00   5.812509536743e+00   5.873117446899e+00   5.941096782684e+00   6.016886711121e+00   6.094228744507e+00 
  6.162265777588e+00   6.226023674011e+00   6.259997367859e+00   6.285490512848e+00   6.280007362366e+00   6.266632556915e+00   6.256508827209e+00   0.000000000000e+00   0.000000000000e+00 
  5.670076370239e+00   5.682789802551e+00   5.728135585785e+00   5.755474090576e+00   5.779035568237e+00   5.809793949127e+00   5.854749679565e+00   5.912452220917e+00   5.986442565918e+00 
  6.059542655945e+00   6.131075859070e+00   6.204895973206e+00   6.262084007263e+00   6.314405441284e+00   6.323458194733e+00   6.324981212616e+00   6.308161735535e+00   6.302105426788e+00 
  0.000000000000e+00   0.000000000000e+00   0.000000000000e+00   0.000000000000e+00   0.000000000000e+00   0.000000000000e+00   0.000000000000e+00   0.000000000000e+00   0.000000000000e+00 
  0.000000000000e+00   0.000000000000e+00   0.000000000000e+00   0.000000000000e+00   0.000000000000e+00   0.000000000000e+00   0.000000000000e+00   0.000000000000e+00   0.000000000000e+00 
  0.000000000000e+00   0.000000000000e+00   0.000000000000e+00   0.000000000000e+00   0.000000000000e+00   0.000000000000e+00   0.000000000000e+00   0.000000000000e+00   0.000000000000e+00 
  0.000000000000e+00   0.000000000000e+00   0.000000000000e+00   0.000000000000e+00   0.000000000000e+00   0.000000000000e+00   0.000000000000e+00   0.000000000000e+00   0.000000000000e+00 
  0.000000000000e+00   0.000000000000e+00   0.000000000000e+00   0.000000000000e+00   0.000000000000e+00   0.000000000000e+00   2.462459325790e+00   1.948423266411e+00   1.596905231476e+00 
  1.796109795570e+00   2.101975202560e+00   1.730964660645e+00   1.308282732964e+00   1.210131883621e+00   1.200479984283e+00   1.104523420334e+00   9.526050090790e-01   1.748270630836e+00 
  2.103381633759e+00   2.042225599289e+00   1.602184057236e+00   1.311359524727e+00   1.042972207069e+00   7.988885641098e-01   0.000000000000e+00   0.000000000000e+00   3.868010044098e+00 
  2.891651630402e+00   2.148408889771e+00   2.700825691223e+00   3.354965925217e+00   2.641185045242e+00   1.683823585510e+00   1.575116634369e+00   1.760274052620e+00   1.673910260201e+00 
  6.265642642975e-01   3.046368598938e+00   3.671161413193e+00   3.314256429672e+00   2.459215641022e+00   1.995067119598e+00   1.648406744003e+00   5.066243410110e-01   0.000000000000e+00 
  0.000000000000e+00   2.169373035431e+00   1.757676601410e+00   1.480288743973e+00   1.646690726280e+00   1.916838288307e+00   1.698407053947e+00   1.472455978394e+00   1.472612023354e+00 
  1.307904958725e+00   1.108001947403e+00   9.125683307648e-01   1.537166714668e+00   1.857585072517e+00   1.819537639618e+00   1.496154546738e+00   1.311890363693e+00   1.108997583389e+00 
  8.815674781799e-01   0.000000000000e+00   0.000000000000e+00   1.622385501862e+00   1.542636394501e+00   1.496936678886e+00   1.579705357552e+00   1.720153570175e+00   1.710744261742e+00 
  1.492992877960e+00   1.374136686325e+00   1.334953665733e+00   1.292113304138e+00   1.308683872223e+00   1.441649913788e+00   1.563092708588e+00   1.541911363602e+00   1.428881287575e+00 
  1.320217370987e+00   1.247608900070e+00   1.165126442909e+00   0.000000000000e+00   0.000000000000e+00   1.478824734688e+00   1.467661380768e+00   1.487435340881e+00   1.579935312271e+00 
  1.763470292091e+00   1.954617857933e+00   1.498381972313e+00   1.372239351273e+00   1.373927593231e+00   1.350193858147e+00   1.331432580948e+00   1.349950313568e+00   1.366164207458e+00 
  1.344486236572e+00   1.310395956039e+00   1.277470231056e+00   1.245892643929e+00   1.190819740295e+00   0.000000000000e+00   0.000000000000e+00   1.560771465302e+00   1.569231629372e+00 
  1.602216959000e+00   1.810527682304e+00   2.310860157013e+00   3.502613544464e+00   2.040233135223e+00   1.693198561668e+00   1.631200432777e+00   1.577501893044e+00   1.557734727859e+00 
  1.528423070908e+00   1.496921539307e+00   1.445144176483e+00   1.389312028885e+00   1.384093642235e+00   1.370039343834e+00   1.328696370125e+00   0.000000000000e+00   0.000000000000e+00 