# vtk DataFile Version 2.0
Written using VisIt writer
ASCII
DATASET RECTILINEAR_GRID
DIMENSIONS 20 20 20
X_COORDINATES 20 float
  0.000000000000e+00   1.000000000000e+00   2.000000000000e+00   3.000000000000e+00   4.000000000000e+00   5.000000000000e+00   6.000000000000e+00   7.000000000000e+00   8.000000000000e+00 
  9.000000000000e+00   1.000000000000e+01   1.100000000000e+01   1.200000000000e+01   1.300000000000e+01   1.400000000000e+01   1.500000000000e+01   1.600000000000e+01   1.700000000000e+01 
  1.800000000000e+01   1.900000000000e+01 
Y_COORDINATES 20 float
  0.000000000000e+00   1.000000000000e+00   2.000000000000e+00   3.000000000000e+00   4.000000000000e+00   5.000000000000e+00   6.000000000000e+00   7.000000000000e+00   8.000000000000e+00 
  9.000000000000e+00   1.000000000000e+01   1.100000000000e+01   1.200000000000e+01   1.300000000000e+01   1.400000000000e+01   1.500000000000e+01   1.600000000000e+01   1.700000000000e+01 
  1.800000000000e+01   1.900000000000e+01 
Z_COORDINATES 20 float
  0.000000000000e+00   1.000000000000e+00   2.000000000000e+00   3.000000000000e+00   4.000000000000e+00   5.000000000000e+00   6.000000000000e+00   7.000000000000e+00   8.000000000000e+00 
  9.000000000000e+00   1.000000000000e+01   1.100000000000e+01   1.200000000000e+01   1.300000000000e+01   1.400000000000e+01   1.500000000000e+01   1.600000000000e+01   1.700000000000e+01 
  1.800000000000e+01   1.900000000000e+01 
CELL_DATA 6859
POINT_DATA 8000
SCALARS pressure float
LOOKUP_TABLE default
  0.000000000000e+00   0.000000000000e+00   0.000000000000e+00   0.000000000000e+00   0.000000000000e+00   0.000000000000e+00   0.000000000000e+00   0.000000000000e+00   0.000000000000e+00 
  0.000000000000e+00   0.000000000000e+00   0.000000000000e+00   0.000000000000e+00   0.000000000000e+00   0.000000000000e+00   0.000000000000e+00   0.000000000000e+00   0.000000000000e+00 
  0.000000000000e+00   0.000000000000e+00   0.000000000000e+00   0.000000000000e+00   0.000000000000e+00   0.000000000000e+00   0.000000000000e+00   0.000000000000e+00   0.000000000000e+00 
  0.000000000000e+00   0.000000000000e+00   0.000000000000e+00   0.000000000000e+00   0.000000000000e+00   0.000000000000e+00   0.000000000000e+00   0.000000000000e+00   0.000000000000e+00 
  0.000000000000e+00   0.000000000000e+00   0.000000000000e+00   0.000000000000e+00   0.000000000000e+00   0.000000000000e+00   0.000000000000e+00   0.000000000000e+00   0.000000000000e+00 
  0.000000000000e+00   0.000000000000e+00   0.000000000000e+00   0.000000000000e+00   0.000000000000e+00   0.000000000000e+00   0.000000000000e+00   0.000000000000e+00   0.000000000000e+00 
  0.000000000000e+00   0.000000000000e+00   0.000000000000e+00   0.000000000000e+00   0.000000000000e+00   0.000000000000e+00   0.000000000000e+00   0.000000000000e+00   0.000000000000e+00 
  0.000000000000e+00   0.000000000000e+00   0.000000000000e+00   0.000000000000e+00   0.000000000000e+00   0.000000000000e+00   0.000000000000e+00   0.000000000000e+00   0.000000000000e+00 
  0.000000000000e+00   0.000000000000e+00   0.000000000000e+00   0.000000000000e+00   0.000000000000e+00   0.000000000000e+00   0.000000000000e+00   0.000000000000e+00   0.000000000000e+00 
  0.000000000000e+00   0.000000000000e+00   0.000000000000e+00   0.000000000000e+00   0.000000000000e+00   0.000000000000e+00   0.000000000000e+00   0.000000000000e+00   0.000000000000e+00 
  0.000000000000e+00   0.000000000000e+00   0.000000000000e+00   0.000000000000e+00   0.000000000000e+00   0.000000000000e+00   0.000000000000e+00   0.000000000000e+00   0.000000000000e+00 
  0.000000000000e+00   0.000000000000e+00   0.000000000000e+00   0.000000000000e+00   0.000000000000e+00   0.000000000000e+00   0.000000000000e+00   0.000000000000e+00   0.000000000000e+00 
  0.000000000000e+00   0.000000000000e+00   0.000000000000e+00   0.000000000000e+00   0.000000000000e+00   0.000000000000e+00   0.000000000000e+00   0.000000000000e+00   0.000000000000e+00 
  0.000000000000e+00   0.000000000000e+00   0.000000000000e+00   0.000000000000e+00   0.000000000000e+00   0.000000000000e+00   0.000000000000e+00   0.000000000000e+00   0.000000000000e+00 
  0.000000000000e+00   0.000000000000e+00   0.000000000000e+00   0.000000000000e+00   0.000000000000e+00   0.000000000000e+00   0.000000000000e+00   0.000000000000e+00   0.000000000000e+00 
  0.000000000000e+00   0.000000000000e+00   0.000000000000e+00   0.000000000000e+00   0.000000000000e+00   0.000000000000e+00   0.000000000000e+00   0.000000000000e+00   0.000000000000e+00 
  0.000000000000e+00   0.000000000000e+00   0.000000000000e+00   0.000000000000e+00   0.000000000000e+00   0.000000000000e+00   0.000000000000e+00   0.000000000000e+00   0.000000000000e+00 
  0.000000000000e+00   0.000000000000e+00   0.000000000000e+00   0.000000000000e+00   0.000000000000e+00   0.000000000000e+00   0.000000000000e+00   0.000000000000e+00   0.000000000000e+00 
  0.000000000000e+00   0.000000000000e+00   0.000000000000e+00   0.000000000000e+00   0.000000000000e+00   0.000000000000e+00   0.000000000000e+00   0.000000000000e+00   0.000000000000e+00 
  0.000000000000e+00   0.000000000000e+00   0.000000000000e+00   0.000000000000e+00   0.000000000000e+00   0.000000000000e+00   0.000000000000e+00   0.000000000000e+00   0.000000000000e+00 
  0.000000000000e+00   0.000000000000e+00   0.000000000000e+00   0.000000000000e+00   0.000000000000e+00   0.000000000000e+00   0.000000000000e+00   0.000000000000e+00   0.000000000000e+00 
  0.000000000000e+00   0.000000000000e+00   0.000000000000e+00   0.000000000000e+00   0.000000000000e+00   0.000000000000e+00   0.000000000000e+00   0.000000000000e+00   0.000000000000e+00 
  0.000000000000e+00   0.000000000000e+00   0.000000000000e+00   0.000000000000e+00   0.000000000000e+00   0.000000000000e+00   0.000000000000e+00   0.000000000000e+00   0.000000000000e+00 
  0.000000000000e+00   0.000000000000e+00   0.000000000000e+00   0.000000000000e+00   0.000000000000e+00   0.000000000000e+00   0.000000000000e+00   0.000000000000e+00   0.000000000000e+00 
  0.000000000000e+00   0.000000000000e+00   0.000000000000e+00   0.000000000000e+00   0.000000000000e+00   0.000000000000e+00   0.000000000000e+00   0.000000000000e+00   0.000000000000e+00 
  0.000000000000e+00   0.000000000000e+00   0.000000000000e+00   0.000000000000e+00   0.000000000000e+00   0.000000000000e+00   0.000000000000e+00   0.000000000000e+00   0.000000000000e+00 
  0.000000000000e+00   0.000000000000e+00   0.000000000000e+00   0.000000000000e+00   0.000000000000e+00   0.000000000000e+00   0.000000000000e+00   0.000000000000e+00   0.000000000000e+00 
  0.000000000000e+00   0.000000000000e+00   0.000000000000e+00   0.000000000000e+00   0.000000000000e+00   0.000000000000e+00   0.000000000000e+00   0.000000000000e+00   0.000000000000e+00 
  0.000000000000e+00   0.000000000000e+00   0.000000000000e+00   0.000000000000e+00   0.000000000000e+00   0.000000000000e+00   0.000000000000e+00   0.000000000000e+00   0.000000000000e+00 
  0.000000000000e+00   0.000000000000e+00   0.000000000000e+00   0.000000000000e+00   0.000000000000e+00   0.000000000000e+00   0.000000000000e+00   0.000000000000e+00   0.000000000000e+00 
  0.000000000000e+00   0.000000000000e+00   0.000000000000e+00   0.000000000000e+00   0.000000000000e+00   0.000000000000e+00   0.000000000000e+00   0.000000000000e+00   0.000000000000e+00 
  0.000000000000e+00   0.000000000000e+00   0.000000000000e+00   0.000000000000e+00   0.000000000000e+00   0.000000000000e+00   0.000000000000e+00   0.000000000000e+00   0.000000000000e+00 
  0.000000000000e+00   0.000000000000e+00   0.000000000000e+00   0.000000000000e+00   0.000000000000e+00   0.000000000000e+00   0.000000000000e+00   0.000000000000e+00   0.000000000000e+00 
  0.000000000000e+00   0.000000000000e+00   0.000000000000e+00   0.000000000000e+00   0.000000000000e+00   0.000000000000e+00   0.000000000000e+00   0.000000000000e+00   0.000000000000e+00 
  0.000000000000e+00   0.000000000000e+00   0.000000000000e+00   0.000000000000e+00   0.000000000000e+00   0.000000000000e+00   0.000000000000e+00   0.000000000000e+00   0.000000000000e+00 
  0.000000000000e+00   0.000000000000e+00   0.000000000000e+00   0.000000000000e+00   0.000000000000e+00   0.000000000000e+00   0.000000000000e+00   0.000000000000e+00   0.000000000000e+00 
  0.000000000000e+00   0.000000000000e+00   0.000000000000e+00   0.000000000000e+00   0.000000000000e+00   0.000000000000e+00   0.000000000000e+00   0.000000000000e+00   0.000000000000e+00 
  0.000000000000e+00   0.000000000000e+00   0.000000000000e+00   0.000000000000e+00   0.000000000000e+00   0.000000000000e+00   0.000000000000e+00   0.000000000000e+00   0.000000000000e+00 
  0.000000000000e+00   0.000000000000e+00   0.000000000000e+00   0.000000000000e+00   0.000000000000e+00   0.000000000000e+00   0.000000000000e+00   0.000000000000e+00   0.000000000000e+00 
  0.000000000000e+00   0.000000000000e+00   0.000000000000e+00   0.000000000000e+00   0.000000000000e+00   0.000000000000e+00   0.000000000000e+00   0.000000000000e+00   0.000000000000e+00 
  0.000000000000e+00   0.000000000000e+00   0.000000000000e+00   0.000000000000e+00   0.000000000000e+00   0.000000000000e+00   0.000000000000e+00   0.000000000000e+00   0.000000000000e+00 
  0.000000000000e+00   0.000000000000e+00   0.000000000000e+00   0.000000000000e+00   0.000000000000e+00   0.000000000000e+00   0.000000000000e+00   0.000000000000e+00   0.000000000000e+00 
  0.000000000000e+00   0.000000000000e+00   0.000000000000e+00   0.000000000000e+00   0.000000000000e+00   0.000000000000e+00   0.000000000000e+00   0.000000000000e+00   0.000000000000e+00 
  0.000000000000e+00   0.000000000000e+00   0.000000000000e+00   0.000000000000e+00   0.000000000000e+00   0.000000000000e+00   0.000000000000e+00   0.000000000000e+00   0.000000000000e+00 
  0.000000000000e+00   0.000000000000e+00   0.000000000000e+00   0.000000000000e+00   0.000000000000e+00   0.000000000000e+00   0.000000000000e+00   0.000000000000e+00   0.000000000000e+00 
  0.000000000000e+00   0.000000000000e+00   0.000000000000e+00   0.000000000000e+00   0.000000000000e+00   0.000000000000e+00   0.000000000000e+00   0.000000000000e+00   0.000000000000e+00 
  0.000000000000e+00   0.000000000000e+00   0.000000000000e+00   0.000000000000e+00   0.000000000000e+00   0.000000000000e+00   0.000000000000e+00   9.280001640320e+00   9.279636383057e+00 
  9.278888702393e+00   9.277719497681e+00   9.276078224182e+00   9.273906707764e+00   9.271154403687e+00   9.267791748047e+00   9.263828277588e+00   9.259325981140e+00   9.254409790039e+00 
  9.249264717102e+00   9.244128227234e+00   9.239272117615e+00   9.234967231750e+00   9.231495857239e+00   9.229074478149e+00   9.227426528931e+00   0.000000000000e+00   0.000000000000e+00 
  9.281185150146e+00   9.280837059021e+00   9.280119895935e+00   9.278989791870e+00   9.277382850647e+00   9.275224685669e+00   9.272442817688e+00   9.268987655640e+00   9.264852523804e+00 
  9.260090827942e+00   9.254832267761e+00   9.249279022217e+00   9.243697166443e+00   9.238393783569e+00   9.233675003052e+00   9.229862213135e+00   9.227193832397e+00   9.225413322449e+00 
  0.000000000000e+00   0.000000000000e+00   9.283818244934e+00   9.283508300781e+00   9.282862663269e+00   9.281822204590e+00   9.280301094055e+00   9.278186798096e+00   9.275362968445e+00 
  9.271732330322e+00   9.267251014709e+00   9.261952400208e+00   9.255974769592e+00   9.249557495117e+00   9.243027687073e+00   9.236768722534e+00   9.231166839600e+00   9.226625442505e+00 
  9.223429679871e+00   9.221373558044e+00   0.000000000000e+00   0.000000000000e+00   9.293250083923e+00   9.293010711670e+00   9.292499542236e+00   9.291642189026e+00   9.290310859680e+00 
  9.288332939148e+00   9.285509109497e+00   9.281659126282e+00   9.276667594910e+00   9.270531654358e+00   9.263394355774e+00   9.255559921265e+00   9.247461318970e+00   9.239615440369e+00 
  9.232547760010e+00   9.226797103882e+00   9.222724914551e+00   9.220224380493e+00   0.000000000000e+00   0.000000000000e+00   9.304967880249e+00   9.304851531982e+00   9.304582595825e+00 
  9.304062843323e+00   9.303108215332e+00   9.301447868347e+00   9.298750877380e+00   9.294689178467e+00   9.289021492004e+00   9.281672477722e+00   9.272796630859e+00   9.262797355652e+00 
  9.252285003662e+00   9.241995811462e+00   9.232672691345e+00   9.225068092346e+00   9.219656944275e+00   9.216497421265e+00   0.000000000000e+00   0.000000000000e+00   9.319913864136e+00 
  9.320005416870e+00   9.320156097412e+00   9.320242881775e+00   9.320005416870e+00   9.319023132324e+00   9.316750526428e+00   9.312616348267e+00   9.306149482727e+00   9.297137260437e+00 
  9.285746574402e+00   9.272545814514e+00   9.258434295654e+00   9.244494438171e+00   9.231815338135e+00   9.221463203430e+00   9.214074134827e+00   9.209982872009e+00   0.000000000000e+00 
  0.000000000000e+00   9.357784271240e+00   9.358177185059e+00   9.358950614929e+00   9.359972000122e+00   9.360897064209e+00   9.361096382141e+00   9.359687805176e+00   9.355698585510e+00 
  9.348277091980e+00   9.336959838867e+00   9.321905136108e+00   9.303950309753e+00   9.284471511841e+00   9.265116691589e+00   9.247504234314e+00   9.233158111572e+00   9.222921371460e+00 
  9.217555046082e+00   0.000000000000e+00   0.000000000000e+00   9.430927276611e+00   9.431774139404e+00   9.433496475220e+00   9.435978889465e+00   9.438781738281e+00   9.440966606140e+00 
  9.441127777100e+00   9.437666893005e+00   9.429093360901e+00   9.414492607117e+00   9.393979072571e+00   9.368845939636e+00   9.341284751892e+00   9.313875198364e+00   9.289054870605e+00 
  9.268989562988e+00   9.254744529724e+00   9.247703552246e+00   0.000000000000e+00   0.000000000000e+00   9.530453681946e+00   9.532079696655e+00   9.535433769226e+00   9.540421485901e+00 
  9.546481132507e+00   9.552186965942e+00   9.555311203003e+00   9.553278923035e+00   9.543521881104e+00   9.524310112000e+00   9.495658874512e+00   9.459657669067e+00   9.419925689697e+00 
  9.380616188049e+00   9.345448493958e+00   9.317445755005e+00   9.297773361206e+00   9.288702011108e+00   0.000000000000e+00   0.000000000000e+00   9.672608375549e+00   9.675645828247e+00 
  9.681850433350e+00   9.691046714783e+00   9.702497482300e+00   9.714064598083e+00   9.722202301025e+00   9.722941398621e+00   9.711937904358e+00   9.685961723328e+00   9.644744873047e+00 
  9.591724395752e+00   9.533063888550e+00   9.475698471069e+00   9.425442695618e+00   9.386448860168e+00   9.359568595886e+00   9.348242759705e+00   0.000000000000e+00   0.000000000000e+00 
  9.721802711487e+00   9.727653503418e+00   9.739151954651e+00   9.756019592285e+00   9.777277946472e+00   9.799652099609e+00   9.817966461182e+00   9.826099395752e+00   9.816321372986e+00 
  9.782365798950e+00   9.722992897034e+00   9.643691062927e+00   9.555209159851e+00   9.469771385193e+00   9.397004127502e+00   9.342621803284e+00   9.306298255920e+00   9.292913436890e+00 
  0.000000000000e+00   0.000000000000e+00   1.015425395966e+01   1.016854858398e+01   1.019482231140e+01   1.022984123230e+01   1.027104282379e+01   1.031317329407e+01   1.034846973419e+01 
  1.036875534058e+01   1.036153793335e+01   1.031564140320e+01   1.022786235809e+01   1.010697364807e+01   9.972133636475e+00   9.845489501953e+00   9.743231773376e+00   9.672436714172e+00 
  9.628688812256e+00   9.616153717041e+00   0.000000000000e+00   0.000000000000e+00   1.095226097107e+01   1.098355484009e+01   1.103678035736e+01   1.110057640076e+01   1.116847515106e+01 
  1.123251247406e+01   1.128272914886e+01   1.131087779999e+01   1.129865074158e+01   1.122714614868e+01   1.108873367310e+01   1.089681625366e+01   1.068568801880e+01   1.049617099762e+01 
  1.035572147369e+01   1.027178764343e+01   1.022970390320e+01   1.022761249542e+01   0.000000000000e+00   0.000000000000e+00   1.182378864288e+01   1.189335346222e+01   1.200355625153e+01 
  1.212259292603e+01   1.223412609100e+01   1.232759189606e+01   1.239405059814e+01   1.242840671539e+01   1.240704154968e+01   1.229839801788e+01   1.208262920380e+01   1.177696800232e+01 
  1.144226074219e+01   1.115527057648e+01   1.096393013000e+01   1.087554740906e+01   1.085527992249e+01   1.088618373871e+01   0.000000000000e+00   0.000000000000e+00   1.318556880951e+01 
  1.332993030548e+01   1.354477691650e+01   1.375919151306e+01   1.393832397461e+01   1.407209682465e+01   1.416063022614e+01   1.420423316956e+01   1.417860126495e+01   1.403077507019e+01 
  1.370871448517e+01   1.322862148285e+01   1.269826507568e+01   1.226317977905e+01   1.200477600098e+01   1.192795372009e+01   1.196554183960e+01   1.207088184357e+01   0.000000000000e+00 
  0.000000000000e+00   1.480603408813e+01   1.507570838928e+01   1.544923686981e+01   1.579032135010e+01   1.604211425781e+01   1.620172309875e+01   1.628772544861e+01   1.631723594666e+01 
  1.627336120605e+01   1.607337951660e+01   1.560284423828e+01   1.486590862274e+01   1.404386043549e+01   1.340393733978e+01   1.306970310211e+01   1.303515720367e+01   1.318746948242e+01 
  1.342870140076e+01   0.000000000000e+00   0.000000000000e+00   1.637679862976e+01   1.682964324951e+01   1.741485977173e+01   1.790888214111e+01   1.823405647278e+01   1.840085411072e+01 
  1.844793701172e+01   1.841710281372e+01   1.831932640076e+01   1.805940055847e+01   1.742910385132e+01   1.639693832397e+01   1.522237586975e+01   1.434941291809e+01   1.394844913483e+01 
  1.399961662292e+01   1.433105468750e+01   1.477602577209e+01   0.000000000000e+00   0.000000000000e+00   1.698671722412e+01   1.763550949097e+01   1.840781021118e+01   1.902754974365e+01 
  1.940575981140e+01   1.956580734253e+01   1.956738281250e+01   1.949209785461e+01   1.937908744812e+01   1.911779975891e+01   1.840328407288e+01   1.714843559265e+01   1.568003845215e+01 
  1.464240169525e+01   1.419884014130e+01   1.430787754059e+01   1.481492996216e+01   1.551388072968e+01   0.000000000000e+00   0.000000000000e+00   0.000000000000e+00   0.000000000000e+00 
  0.000000000000e+00   0.000000000000e+00   0.000000000000e+00   0.000000000000e+00   0.000000000000e+00   0.000000000000e+00   0.000000000000e+00   0.000000000000e+00   0.000000000000e+00 
  0.000000000000e+00   0.000000000000e+00   0.000000000000e+00   0.000000000000e+00   0.000000000000e+00   0.000000000000e+00   0.000000000000e+00   0.000000000000e+00   0.000000000000e+00 
  0.000000000000e+00   0.000000000000e+00   0.000000000000e+00   0.000000000000e+00   0.000000000000e+00   0.000000000000e+00   0.000000000000e+00   0.000000000000e+00   0.000000000000e+00 
  0.000000000000e+00   0.000000000000e+00   0.000000000000e+00   0.000000000000e+00   0.000000000000e+00   0.000000000000e+00   0.000000000000e+00   0.000000000000e+00   0.000000000000e+00 
  0.000000000000e+00   0.000000000000e+00   8.244465827942e+00   8.244110107422e+00   8.243383407593e+00   8.242247581482e+00   8.240655899048e+00   8.238554000854e+00   8.235893249512e+00 
  8.232648849487e+00   8.228828430176e+00   8.224493026733e+00   8.219760894775e+00   8.214810371399e+00   8.209870338440e+00   8.205201148987e+00   8.201061248779e+00   8.197725296021e+00 
  8.195397377014e+00   8.193811416626e+00   0.000000000000e+00   0.000000000000e+00   8.246056556702e+00   8.245712280273e+00   8.245003700256e+00   8.243887901306e+00   8.242308616638e+00 
  8.240196228027e+00   8.237484931946e+00   8.234130859375e+00   8.230126380920e+00   8.225524902344e+00   8.220450401306e+00   8.215097427368e+00   8.209721565247e+00   8.204614639282e+00 
  8.200072288513e+00   8.196404457092e+00   8.193837165833e+00   8.192127227783e+00   0.000000000000e+00   0.000000000000e+00   8.246248245239e+00   8.245937347412e+00   8.245289802551e+00 
  8.244250297546e+00   8.242740631104e+00   8.240659713745e+00   8.237898826599e+00   8.234368324280e+00   8.230026245117e+00   8.224906921387e+00   8.219141960144e+00   8.212961196899e+00 
  8.206676483154e+00   8.200654983521e+00   8.195267677307e+00   8.190901756287e+00   8.187830924988e+00   8.185861587524e+00   0.000000000000e+00   0.000000000000e+00   8.241177558899e+00 
  8.240937232971e+00   8.240428924561e+00   8.239588737488e+00   8.238301277161e+00   8.236399650574e+00   8.233696937561e+00   8.230017662048e+00   8.225250244141e+00   8.219388961792e+00 
  8.212571144104e+00   8.205085754395e+00   8.197344779968e+00   8.189844131470e+00   8.183084487915e+00   8.177582740784e+00   8.173686981201e+00   8.171297073364e+00   0.000000000000e+00 
  0.000000000000e+00   8.233255386353e+00   8.233139991760e+00   8.232886314392e+00   8.232413291931e+00   8.231551170349e+00   8.230038642883e+00   8.227557182312e+00   8.223787307739e+00 
  8.218489646912e+00   8.211583137512e+00   8.203207015991e+00   8.193746566772e+00   8.183780670166e+00   8.174010276794e+00   8.165144920349e+00   8.157905578613e+00   8.152747154236e+00 
  8.149737358093e+00   0.000000000000e+00   0.000000000000e+00   8.235577583313e+00   8.235619544983e+00   8.235693931580e+00   8.235716819763e+00   8.235466957092e+00   8.234555244446e+00 
  8.232460021973e+00   8.228631973267e+00   8.222609519958e+00   8.214168548584e+00   8.203445434570e+00   8.190975189209e+00   8.177611351013e+00   8.164381027222e+00   8.152319908142e+00 
  8.142454147339e+00   8.135402679443e+00   8.131516456604e+00   0.000000000000e+00   0.000000000000e+00   8.254893302917e+00   8.255122184753e+00   8.255620002747e+00   8.256357192993e+00 
  8.257079124451e+00   8.257211685181e+00   8.255913734436e+00   8.252253532410e+00   8.245390892029e+00   8.234831809998e+00   8.220682144165e+00   8.203729629517e+00   8.185283660889e+00 
  8.166896820068e+00   8.150095939636e+00   8.136364936829e+00   8.126553535461e+00   8.121468544006e+00   0.000000000000e+00   0.000000000000e+00   8.300577163696e+00   8.301108360291e+00 
  8.302337646484e+00   8.304357528687e+00   8.306911468506e+00   8.309147834778e+00   8.309704780579e+00   8.307028770447e+00   8.299600601196e+00   8.286406517029e+00   8.267464637756e+00 
  8.244007110596e+00   8.218129158020e+00   8.192241668701e+00   8.168628692627e+00   8.149414062500e+00   8.135719299316e+00   8.129034042358e+00   0.000000000000e+00   0.000000000000e+00 
  8.373311996460e+00   8.374200820923e+00   8.376381874084e+00   8.380243301392e+00   8.385677337646e+00   8.391454696655e+00   8.395362854004e+00   8.394880294800e+00   8.387279510498e+00 
  8.370545387268e+00   8.344475746155e+00   8.311098098755e+00   8.273901939392e+00   8.236763954163e+00   8.203144073486e+00   8.176048278809e+00   8.156856536865e+00   8.148110389709e+00 
  0.000000000000e+00   0.000000000000e+00   8.464160919189e+00   8.465532302856e+00   8.469102859497e+00   8.475835800171e+00   8.486104965210e+00   8.498095512390e+00   8.508145332336e+00 
  8.512344360352e+00   8.505764007568e+00   8.484441757202e+00   8.447678565979e+00   8.398924827576e+00   8.344244003296e+00   8.290150642395e+00   8.241977691650e+00   8.203845977783e+00 
  8.177122116089e+00   8.165880203247e+00   0.000000000000e+00   0.000000000000e+00   8.603706359863e+00   8.606201171875e+00   8.612482070923e+00   8.624182701111e+00   8.642785072327e+00 
  8.665462493896e+00   8.686122894287e+00   8.699378013611e+00   8.696207046509e+00   8.668892860413e+00   8.615679740906e+00   8.542438507080e+00   8.460007667542e+00   8.379974365234e+00 
  8.310917854309e+00   8.258132934570e+00   8.221793174744e+00   8.207846641541e+00   0.000000000000e+00   0.000000000000e+00   8.940354347229e+00   8.946895599365e+00   8.960920333862e+00 
  8.983161926270e+00   9.016923904419e+00   9.057649612427e+00   9.095088958740e+00   9.123718261719e+00   9.127178192139e+00   9.091024398804e+00   9.011356353760e+00   8.897701263428e+00 
  8.769834518433e+00   8.649595260620e+00   8.551651954651e+00   8.482034683228e+00   8.436388015747e+00   8.421120643616e+00   0.000000000000e+00   0.000000000000e+00   9.509016036987e+00 
  9.528627395630e+00   9.563399314880e+00   9.607432365417e+00   9.666326522827e+00   9.732593536377e+00   9.789949417114e+00   9.838515281677e+00   9.849911689758e+00   9.798129081726e+00 
  9.673572540283e+00   9.490034103394e+00   9.284420967102e+00   9.100115776062e+00   8.963588714600e+00   8.880044937134e+00   8.833441734314e+00   8.824803352356e+00   0.000000000000e+00 
  0.000000000000e+00   1.035066986084e+01   1.041157722473e+01   1.050476360321e+01   1.060135650635e+01   1.070513534546e+01   1.080700111389e+01   1.088698482513e+01   1.095866489410e+01 
  1.098066902161e+01   1.090753841400e+01   1.071085739136e+01   1.040654373169e+01   1.006488800049e+01   9.776084899902e+00   9.588606834412e+00   9.504964828491e+00   9.485999107361e+00 
  9.513882637024e+00   0.000000000000e+00   0.000000000000e+00   1.163213253021e+01   1.179857921600e+01   1.202753257751e+01   1.223945045471e+01   1.241399288177e+01   1.254960918427e+01 
  1.264943790436e+01   1.272901439667e+01   1.275922679901e+01   1.266475391388e+01   1.235764312744e+01   1.184263992310e+01   1.125660991669e+01   1.079662704468e+01   1.054584217072e+01 
  1.049641895294e+01   1.057228565216e+01   1.071716213226e+01   0.000000000000e+00   0.000000000000e+00   1.330029201508e+01   1.367587566376e+01   1.413956451416e+01   1.451868820190e+01 
  1.477511119843e+01   1.493383407593e+01   1.503173732758e+01   1.510744285583e+01   1.515621662140e+01   1.506395530701e+01   1.460297870636e+01   1.373750877380e+01   1.272238731384e+01 
  1.199193477631e+01   1.166446018219e+01   1.169994163513e+01   1.197028160095e+01   1.236290931702e+01   0.000000000000e+00   0.000000000000e+00   1.472908592224e+01   1.549223327637e+01 
  1.630242729187e+01   1.689493560791e+01   1.725097274780e+01   1.742824745178e+01   1.748157691956e+01   1.748699569702e+01   1.752231979370e+01   1.747658348083e+01   1.684461212158e+01 
  1.550730991364e+01   1.386007785797e+01   1.277568340302e+01   1.236116313934e+01   1.253973197937e+01   1.313529777527e+01   1.401434230804e+01   0.000000000000e+00   0.000000000000e+00 
  1.516768741608e+01   1.647244262695e+01   1.769723320007e+01   1.848803329468e+01   1.888512229919e+01   1.900656890869e+01   1.895707893372e+01   1.889775466919e+01   1.898514747620e+01 
  1.905327606201e+01   1.833989906311e+01   1.649734497070e+01   1.400769233704e+01   1.261192131042e+01   1.212790203094e+01   1.237663841248e+01   1.325855541229e+01   1.481397628784e+01 
  0.000000000000e+00   0.000000000000e+00   0.000000000000e+00   0.000000000000e+00   0.000000000000e+00   0.000000000000e+00   0.000000000000e+00   0.000000000000e+00   0.000000000000e+00 
  0.000000000000e+00   0.000000000000e+00   0.000000000000e+00   0.000000000000e+00   0.000000000000e+00   0.000000000000e+00   0.000000000000e+00   0.000000000000e+00   0.000000000000e+00 
  0.000000000000e+00   0.000000000000e+00   0.000000000000e+00   0.000000000000e+00   0.000000000000e+00   0.000000000000e+00   0.000000000000e+00   0.000000000000e+00   0.000000000000e+00 
  0.000000000000e+00   0.000000000000e+00   0.000000000000e+00   0.000000000000e+00   0.000000000000e+00   0.000000000000e+00   0.000000000000e+00   0.000000000000e+00   0.000000000000e+00 
  0.000000000000e+00   0.000000000000e+00   0.000000000000e+00   0.000000000000e+00   0.000000000000e+00   0.000000000000e+00   7.161953926086e+00   7.161621570587e+00   7.160940647125e+00 
  7.159879207611e+00   7.158393383026e+00   7.156435966492e+00   7.153965950012e+00   7.150960445404e+00   7.147429466248e+00   7.143427848816e+00   7.139064311981e+00   7.134502410889e+00 
  7.129950523376e+00   7.125648975372e+00   7.121836185455e+00   7.118763446808e+00   7.116620540619e+00   7.115149974823e+00   0.000000000000e+00   0.000000000000e+00   7.165969848633e+00 
  7.165650367737e+00   7.164992332458e+00   7.163956165314e+00   7.162489891052e+00   7.160532951355e+00   7.158028602600e+00   7.154935836792e+00   7.151249885559e+00   7.147019863129e+00 
  7.142357826233e+00   7.137442111969e+00   7.132504940033e+00   7.127815246582e+00   7.123643398285e+00   7.120275020599e+00   7.117917537689e+00   7.116337776184e+00   0.000000000000e+00 
  0.000000000000e+00   7.149548053741e+00   7.149269580841e+00   7.148688793182e+00   7.147751331329e+00   7.146384716034e+00   7.144499778748e+00   7.141998767853e+00   7.138798713684e+00 
  7.134859561920e+00   7.130209922791e+00   7.124968051910e+00   7.119341373444e+00   7.113613128662e+00   7.108118057251e+00   7.103196620941e+00   7.099206924438e+00   7.096397876740e+00 
  7.094588756561e+00   0.000000000000e+00   0.000000000000e+00   7.121211528778e+00   7.120994091034e+00   7.120536327362e+00   7.119788646698e+00   7.118649482727e+00   7.116966724396e+00 
  7.114569187164e+00   7.111295223236e+00   7.107033729553e+00   7.101773738861e+00   7.095633983612e+00   7.088872432709e+00   7.081862926483e+00   7.075054168701e+00   7.068905830383e+00 
  7.063895702362e+00   7.060341358185e+00   7.058159828186e+00   0.000000000000e+00   0.000000000000e+00   7.104594230652e+00   7.104459762573e+00   7.104175567627e+00   7.103697299957e+00 
  7.102890014648e+00   7.101521015167e+00   7.099303245544e+00   7.095945358276e+00   7.091217994690e+00   7.085031032562e+00   7.077499866486e+00   7.068963527679e+00   7.059945583344e+00 
  7.051080226898e+00   7.043014526367e+00   7.036414146423e+00   7.031702995300e+00   7.028977870941e+00   0.000000000000e+00   0.000000000000e+00   7.090472698212e+00   7.090435028076e+00 
  7.090377807617e+00   7.090283870697e+00   7.089998245239e+00   7.089184761047e+00   7.087371826172e+00   7.084053993225e+00   7.078792095184e+00   7.071347236633e+00   7.061810016632e+00 
  7.050652027130e+00   7.038646221161e+00   7.026714801788e+00   7.015788078308e+00   7.006815910339e+00   7.000382423401e+00   6.996893405914e+00   0.000000000000e+00   0.000000000000e+00 