# vtk DataFile Version 2.0
Written using VisIt writer
ASCII
DATASET RECTILINEAR_GRID
DIMENSIONS 20 20 20
X_COORDINATES 20 float
  0.000000000000e+00   1.000000000000e+00   2.000000000000e+00   3.000000000000e+00   4.000000000000e+00   5.000000000000e+00   6.000000000000e+00   7.000000000000e+00   8.000000000000e+00 
  9.000000000000e+00   1.000000000000e+01   1.100000000000e+01   1.200000000000e+01   1.300000000000e+01   1.400000000000e+01   1.500000000000e+01   1.600000000000e+01   1.700000000000e+01 
  1.800000000000e+01   1.900000000000e+01 
Y_COORDINATES 20 float
  0.000000000000e+00   1.000000000000e+00   2.000000000000e+00   3.000000000000e+00   4.000000000000e+00   5.000000000000e+00   6.000000000000e+00   7.000000000000e+00   8.000000000000e+00 
  9.000000000000e+00   1.000000000000e+01   1.100000000000e+01   1.200000000000e+01   1.300000000000e+01   1.400000000000e+01   1.500000000000e+01   1.600000000000e+01   1.700000000000e+01 
  1.800000000000e+01   1.900000000000e+01 
Z_COORDINATES 20 float
  0.000000000000e+00   1.000000000000e+00   2.000000000000e+00   3.000000000000e+00   4.000000000000e+00   5.000000000000e+00   6.000000000000e+00   7.000000000000e+00   8.000000000000e+00 
  9.000000000000e+00   1.000000000000e+01   1.100000000000e+01   1.200000000000e+01   1.300000000000e+01   1.400000000000e+01   1.500000000000e+01   1.600000000000e+01   1.700000000000e+01 
  1.800000000000e+01   1.900000000000e+01 
CELL_DATA 6859
POINT_DATA 8000
SCALARS pressure float
LOOKUP_TABLE default
  0.000000000000e+00   0.000000000000e+00   0.000000000000e+00   0.000000000000e+00   0.000000000000e+00   0.000000000000e+00   0.000000000000e+00   0.000000000000e+00   0.000000000000e+00 
  0.000000000000e+00   0.000000000000e+00   0.000000000000e+00   0.000000000000e+00   0.000000000000e+00   0.000000000000e+00   0.000000000000e+00   0.000000000000e+00   0.000000000000e+00 
  0.000000000000e+00   0.000000000000e+00   0.000000000000e+00   0.000000000000e+00   0.000000000000e+00   0.000000000000e+00   0.000000000000e+00   0.000000000000e+00   0.000000000000e+00 
  0.000000000000e+00   0.000000000000e+00   0.000000000000e+00   0.000000000000e+00   0.000000000000e+00   0.000000000000e+00   0.000000000000e+00   0.000000000000e+00   0.000000000000e+00 
  0.000000000000e+00   0.000000000000e+00   0.000000000000e+00   0.000000000000e+00   0.000000000000e+00   0.000000000000e+00   0.000000000000e+00   0.000000000000e+00   0.000000000000e+00 
  0.000000000000e+00   0.000000000000e+00   0.000000000000e+00   0.000000000000e+00   0.000000000000e+00   0.000000000000e+00   0.000000000000e+00   0.000000000000e+00   0.000000000000e+00 
  0.000000000000e+00   0.000000000000e+00   0.000000000000e+00   0.000000000000e+00   0.000000000000e+00   0.000000000000e+00   0.000000000000e+00   0.000000000000e+00   0.000000000000e+00 
  0.000000000000e+00   0.000000000000e+00   0.000000000000e+00   0.000000000000e+00   0.000000000000e+00   0.000000000000e+00   0.000000000000e+00   0.000000000000e+00   0.000000000000e+00 
  0.000000000000e+00   0.000000000000e+00   0.000000000000e+00   0.000000000000e+00   0.000000000000e+00   0.000000000000e+00   0.000000000000e+00   0.000000000000e+00   0.000000000000e+00 
  0.000000000000e+00   0.000000000000e+00   0.000000000000e+00   0.000000000000e+00   0.000000000000e+00   0.000000000000e+00   0.000000000000e+00   0.000000000000e+00   0.000000000000e+00 
  0.000000000000e+00   0.000000000000e+00   0.000000000000e+00   0.000000000000e+00   0.000000000000e+00   0.000000000000e+00   0.000000000000e+00   0.000000000000e+00   0.000000000000e+00 
  0.000000000000e+00   0.000000000000e+00   0.000000000000e+00   0.000000000000e+00   0.000000000000e+00   0.000000000000e+00   0.000000000000e+00   0.000000000000e+00   0.000000000000e+00 
  0.000000000000e+00   0.000000000000e+00   0.000000000000e+00   0.000000000000e+00   0.000000000000e+00   0.000000000000e+00   0.000000000000e+00   0.000000000000e+00   0.000000000000e+00 
  0.000000000000e+00   0.000000000000e+00   0.000000000000e+00   0.000000000000e+00   0.000000000000e+00   0.000000000000e+00   0.000000000000e+00   0.000000000000e+00   0.000000000000e+00 
  0.000000000000e+00   0.000000000000e+00   0.000000000000e+00   0.000000000000e+00   0.000000000000e+00   0.000000000000e+00   0.000000000000e+00   0.000000000000e+00   0.000000000000e+00 
  0.000000000000e+00   0.000000000000e+00   0.000000000000e+00   0.000000000000e+00   0.000000000000e+00   0.000000000000e+00   0.000000000000e+00   0.000000000000e+00   0.000000000000e+00 
  0.000000000000e+00   0.000000000000e+00   0.000000000000e+00   0.000000000000e+00   0.000000000000e+00   0.000000000000e+00   0.000000000000e+00   0.000000000000e+00   0.000000000000e+00 
  0.000000000000e+00   0.000000000000e+00   0.000000000000e+00   0.000000000000e+00   0.000000000000e+00   0.000000000000e+00   0.000000000000e+00   0.000000000000e+00   0.000000000000e+00 
  0.000000000000e+00   0.000000000000e+00   0.000000000000e+00   0.000000000000e+00   0.000000000000e+00   0.000000000000e+00   0.000000000000e+00   0.000000000000e+00   0.000000000000e+00 
  0.000000000000e+00   0.000000000000e+00   0.000000000000e+00   0.000000000000e+00   0.000000000000e+00   0.000000000000e+00   0.000000000000e+00   0.000000000000e+00   0.000000000000e+00 
  0.000000000000e+00   0.000000000000e+00   0.000000000000e+00   0.000000000000e+00   0.000000000000e+00   0.000000000000e+00   0.000000000000e+00   0.000000000000e+00   0.000000000000e+00 
  0.000000000000e+00   0.000000000000e+00   0.000000000000e+00   0.000000000000e+00   0.000000000000e+00   0.000000000000e+00   0.000000000000e+00   0.000000000000e+00   0.000000000000e+00 
  0.000000000000e+00   0.000000000000e+00   0.000000000000e+00   0.000000000000e+00   0.000000000000e+00   0.000000000000e+00   0.000000000000e+00   0.000000000000e+00   0.000000000000e+00 
  0.000000000000e+00   0.000000000000e+00   0.000000000000e+00   0.000000000000e+00   0.000000000000e+00   0.000000000000e+00   0.000000000000e+00   0.000000000000e+00   0.000000000000e+00 
  0.000000000000e+00   0.000000000000e+00   0.000000000000e+00   0.000000000000e+00   0.000000000000e+00   0.000000000000e+00   0.000000000000e+00   0.000000000000e+00   0.000000000000e+00 
  0.000000000000e+00   0.000000000000e+00   0.000000000000e+00   0.000000000000e+00   0.000000000000e+00   0.000000000000e+00   0.000000000000e+00   0.000000000000e+00   0.000000000000e+00 
  0.000000000000e+00   0.000000000000e+00   0.000000000000e+00   0.000000000000e+00   0.000000000000e+00   0.000000000000e+00   0.000000000000e+00   0.000000000000e+00   0.000000000000e+00 
  0.000000000000e+00   0.000000000000e+00   0.000000000000e+00   0.000000000000e+00   0.000000000000e+00   0.000000000000e+00   0.000000000000e+00   0.000000000000e+00   0.000000000000e+00 
  0.000000000000e+00   0.000000000000e+00   0.000000000000e+00   0.000000000000e+00   0.000000000000e+00   0.000000000000e+00   0.000000000000e+00   0.000000000000e+00   0.000000000000e+00 
  0.000000000000e+00   0.000000000000e+00   0.000000000000e+00   0.000000000000e+00   0.000000000000e+00   0.000000000000e+00   0.000000000000e+00   0.000000000000e+00   0.000000000000e+00 
  0.000000000000e+00   0.000000000000e+00   0.000000000000e+00   0.000000000000e+00   0.000000000000e+00   0.000000000000e+00   0.000000000000e+00   0.000000000000e+00   0.000000000000e+00 
  0.000000000000e+00   0.000000000000e+00   0.000000000000e+00   0.000000000000e+00   0.000000000000e+00   0.000000000000e+00   0.000000000000e+00   0.000000000000e+00   0.000000000000e+00 
  0.000000000000e+00   0.000000000000e+00   0.000000000000e+00   0.000000000000e+00   0.000000000000e+00   0.000000000000e+00   0.000000000000e+00   0.000000000000e+00   0.000000000000e+00 
  0.000000000000e+00   0.000000000000e+00   0.000000000000e+00   0.000000000000e+00   0.000000000000e+00   0.000000000000e+00   0.000000000000e+00   0.000000000000e+00   0.000000000000e+00 
  0.000000000000e+00   0.000000000000e+00   0.000000000000e+00   0.000000000000e+00   0.000000000000e+00   0.000000000000e+00   0.000000000000e+00   0.000000000000e+00   0.000000000000e+00 
  0.000000000000e+00   0.000000000000e+00   0.000000000000e+00   0.000000000000e+00   0.000000000000e+00   0.000000000000e+00   0.000000000000e+00   0.000000000000e+00   0.000000000000e+00 
  0.000000000000e+00   0.000000000000e+00   0.000000000000e+00   0.000000000000e+00   0.000000000000e+00   0.000000000000e+00   0.000000000000e+00   0.000000000000e+00   0.000000000000e+00 
  0.000000000000e+00   0.000000000000e+00   0.000000000000e+00   0.000000000000e+00   0.000000000000e+00   0.000000000000e+00   0.000000000000e+00   0.000000000000e+00   0.000000000000e+00 
  0.000000000000e+00   0.000000000000e+00   0.000000000000e+00   0.000000000000e+00   0.000000000000e+00   0.000000000000e+00   0.000000000000e+00   0.000000000000e+00   0.000000000000e+00 
  0.000000000000e+00   0.000000000000e+00   0.000000000000e+00   0.000000000000e+00   0.000000000000e+00   0.000000000000e+00   0.000000000000e+00   0.000000000000e+00   0.000000000000e+00 
  0.000000000000e+00   0.000000000000e+00   0.000000000000e+00   0.000000000000e+00   0.000000000000e+00   0.000000000000e+00   0.000000000000e+00   0.000000000000e+00   0.000000000000e+00 
  0.000000000000e+00   0.000000000000e+00   0.000000000000e+00   0.000000000000e+00   0.000000000000e+00   0.000000000000e+00   0.000000000000e+00   0.000000000000e+00   0.000000000000e+00 
  0.000000000000e+00   0.000000000000e+00   0.000000000000e+00   0.000000000000e+00   0.000000000000e+00   0.000000000000e+00   0.000000000000e+00   0.000000000000e+00   0.000000000000e+00 
  0.000000000000e+00   0.000000000000e+00   0.000000000000e+00   0.000000000000e+00   0.000000000000e+00   0.000000000000e+00   0.000000000000e+00   0.000000000000e+00   0.000000000000e+00 
  0.000000000000e+00   0.000000000000e+00   0.000000000000e+00   0.000000000000e+00   0.000000000000e+00   0.000000000000e+00   0.000000000000e+00   0.000000000000e+00   0.000000000000e+00 
  0.000000000000e+00   0.000000000000e+00   0.000000000000e+00   0.000000000000e+00   0.000000000000e+00   0.000000000000e+00   0.000000000000e+00   0.000000000000e+00   0.000000000000e+00 
  0.000000000000e+00   0.000000000000e+00   0.000000000000e+00   0.000000000000e+00   0.000000000000e+00   0.000000000000e+00   0.000000000000e+00   1.785873770714e+00   2.006910562515e+00 
  3.023492813110e+00   3.020532608032e+00   2.951333045959e+00   2.760620832443e+00   3.165741920471e+00   2.783380031586e+00   2.529200077057e+00   2.529421329498e+00   2.674764633179e+00 
  3.281556367874e+00   3.961784124374e+00   3.639684915543e+00   3.581715106964e+00   3.535078287125e+00   3.600746870041e+00   3.447525262833e+00   0.000000000000e+00   0.000000000000e+00 
  1.430467247963e+00   1.945791363716e+00   2.471610069275e+00   2.563526868820e+00   2.526284217834e+00   2.494845628738e+00   2.818575382233e+00   2.670562028885e+00   2.605805873871e+00 
  2.630395889282e+00   2.708237648010e+00   3.211524486542e+00   3.745654821396e+00   3.774406671524e+00   3.876933574677e+00   3.969676971436e+00   3.933583498001e+00   3.767173767090e+00 
  0.000000000000e+00   0.000000000000e+00   1.902622580528e+00   1.753998994827e+00   1.738559007645e+00   2.117483377457e+00   2.155664443970e+00   1.948924303055e+00   2.430011749268e+00 
  2.503300428391e+00   2.388776063919e+00   2.300413370132e+00   2.009401798248e+00   3.355208635330e+00   4.205042362213e+00   4.298052787781e+00   4.683484077454e+00   5.357643127441e+00 
  4.701386928558e+00   4.053148269653e+00   0.000000000000e+00   0.000000000000e+00   2.312639474869e+00   7.725865840912e+00   1.976016640663e+00   2.274806022644e+00   2.132623434067e+00 
  5.054476261139e+00   2.790693044662e+00   2.873693943024e+00   2.509423732758e+00   2.355594396591e+00   4.518158435822e+00   4.363039016724e+00   5.833392620087e+00   5.680881977081e+00 
  6.007107257843e+00   7.763534545898e+00   6.202047348022e+00   4.814863681793e+00   0.000000000000e+00   0.000000000000e+00   2.373321056366e+00   2.091106653214e+00   1.871531486511e+00 
  2.327862024307e+00   2.416916847229e+00   2.289448976517e+00   2.744149923325e+00   2.746943235397e+00   2.582506895065e+00   2.497076034546e+00   2.126396417618e+00   3.541618108749e+00 
  4.362291336060e+00   4.407114982605e+00   4.789294242859e+00   5.530942916870e+00   4.764182567596e+00   4.052671909332e+00   0.000000000000e+00   0.000000000000e+00   2.562264919281e+00 
  2.451457977295e+00   2.443321704865e+00   2.582646608353e+00   2.732237815857e+00   2.776541948318e+00   2.958874225616e+00   2.996625900269e+00   2.929259061813e+00   2.784552812576e+00 
  2.731257677078e+00   3.110534906387e+00   3.481008052826e+00   3.617204904556e+00   3.730008602142e+00   3.812715768814e+00   3.661449432373e+00   3.468924045563e+00   0.000000000000e+00 
  0.000000000000e+00   2.821412801743e+00   2.746146440506e+00   2.813750505447e+00   2.940689086914e+00   3.098749160767e+00   3.269765615463e+00   3.340972185135e+00   3.314497947693e+00 
  3.134598731995e+00   3.067378520966e+00   2.845120191574e+00   2.804419994354e+00   2.865163326263e+00   2.918035984039e+00   3.039753437042e+00   3.010279178619e+00   2.987741947174e+00 
  2.946761608124e+00   0.000000000000e+00   0.000000000000e+00   2.952154636383e+00   2.908741235733e+00   2.893463134766e+00   3.010961055756e+00   3.307090759277e+00   3.541207551956e+00 
  3.588888883591e+00   3.514417648315e+00   3.364122152328e+00   3.038875341415e+00   2.293658733368e+00   2.172821521759e+00   2.148522853851e+00   2.036737203598e+00   1.996190905571e+00 
  1.985610842705e+00   1.987691402435e+00   1.968055605888e+00   0.000000000000e+00   0.000000000000e+00   2.973824977875e+00   2.863433361053e+00   2.680054187775e+00   2.848820686340e+00 
  3.387917280197e+00   3.679520845413e+00   3.665014743805e+00   3.594885349274e+00   3.503901720047e+00   2.955060243607e+00   4.407234191895e+00   4.489344120026e+00   4.519228458405e+00 
  1.532974243164e+00   1.988569498062e+00   2.156738519669e+00   2.207950830460e+00   2.242542266846e+00   0.000000000000e+00   0.000000000000e+00   3.012463331223e+00   2.802104473114e+00 
  2.363761186600e+00   2.456980705261e+00   3.535528898239e+00   3.824618577957e+00   3.714808225632e+00   3.652363777161e+00   3.776557922363e+00   3.843119621277e+00   3.651406764984e+00 
  3.589324712753e+00   3.609342336655e+00   3.555667638779e+00   3.575870037079e+00   3.632393121719e+00   3.661376953125e+00   3.675802707672e+00   0.000000000000e+00   0.000000000000e+00 
  3.051276445389e+00   3.005243539810e+00   2.842918872833e+00   2.448536157608e+00   3.197721004486e+00   2.956169605255e+00   2.920239448547e+00   3.453971862793e+00   3.356017827988e+00 
  4.231858253479e+00   4.351202964783e+00   4.501456260681e+00   4.683581829071e+00   4.843679904938e+00   4.906888484955e+00   4.904660701752e+00   4.919243335724e+00   4.881610870361e+00 
  0.000000000000e+00   0.000000000000e+00   2.951096057892e+00   3.173965215683e+00   3.234147787094e+00   3.742071151733e+00   2.779613018036e+00   4.581494331360e+00   5.287173748016e+00 
  3.102293014526e+00   6.848968982697e+00   4.579668998718e+00   5.061699390411e+00   5.271368980408e+00   5.308643341064e+00   5.305922508240e+00   5.415822505951e+00   5.506454467773e+00 
  5.556416034698e+00   5.520691394806e+00   0.000000000000e+00   0.000000000000e+00   2.951385259628e+00   3.491576433182e+00   4.660124778748e+00   3.958397388458e+00   3.978564023972e+00 
  3.346342802048e+00   3.329654932022e+00   4.003214836121e+00   4.267786979675e+00   4.885658740997e+00   5.052975177765e+00   5.388765811920e+00   5.594961166382e+00   5.761851310730e+00 
  5.866205692291e+00   5.896233558655e+00   5.885979652405e+00   5.880709171295e+00   0.000000000000e+00   0.000000000000e+00   3.765296459198e+00   4.175849437714e+00   4.811040401459e+00 
  4.684130191803e+00   4.603832721710e+00   4.383344650269e+00   4.396599292755e+00   4.686885356903e+00   4.953627109528e+00   5.193346977234e+00   5.445682048798e+00   5.697229385376e+00 
  5.916395664215e+00   6.083526134491e+00   6.163905143738e+00   6.190839767456e+00   6.228786468506e+00   6.195414066315e+00   0.000000000000e+00   0.000000000000e+00   4.522871017456e+00 
  4.672680377960e+00   4.925246238708e+00   4.979545593262e+00   4.977095127106e+00   4.959037780762e+00   5.007067203522e+00   5.139959812164e+00   5.331429958344e+00   5.572638034821e+00 
  5.810404300690e+00   6.015448093414e+00   6.172416210175e+00   6.288119316101e+00   6.382281780243e+00   6.441350936890e+00   6.539476871490e+00   6.420450687408e+00   0.000000000000e+00 
  0.000000000000e+00   4.961919307709e+00   5.021739482880e+00   5.171170234680e+00   5.255897045135e+00   5.305822372437e+00   5.342692852020e+00   5.415257453918e+00   5.538888931274e+00 
  5.684728145599e+00   5.850233078003e+00   6.022588253021e+00   6.185219764709e+00   6.328364372253e+00   6.445873737335e+00   6.537104606628e+00   6.593708992004e+00   6.666697978973e+00 
  6.621932983398e+00   0.000000000000e+00   0.000000000000e+00   5.341928482056e+00   5.317088603973e+00   5.385142803192e+00   5.455770492554e+00   5.513795852661e+00   5.572010517120e+00 
  5.653226375580e+00   5.753598690033e+00   5.883856296539e+00   6.023884296417e+00   6.164553165436e+00   6.309751510620e+00   6.439741134644e+00   6.557453155518e+00   6.649457931519e+00 
  6.715587615967e+00   6.748246192932e+00   6.760865688324e+00   0.000000000000e+00   0.000000000000e+00   5.346301078796e+00   5.379911899567e+00   5.460835456848e+00   5.548424720764e+00 
  5.615971088409e+00   5.683551311493e+00   5.753085136414e+00   5.855144977570e+00   5.965991020203e+00   6.097585678101e+00   6.230545997620e+00   6.365973949432e+00   6.502810478210e+00 
  6.615003108978e+00   6.698007106781e+00   6.753496646881e+00   6.787786960602e+00   6.810225009918e+00   0.000000000000e+00   0.000000000000e+00   0.000000000000e+00   0.000000000000e+00 
  0.000000000000e+00   0.000000000000e+00   0.000000000000e+00   0.000000000000e+00   0.000000000000e+00   0.000000000000e+00   0.000000000000e+00   0.000000000000e+00   0.000000000000e+00 
  0.000000000000e+00   0.000000000000e+00   0.000000000000e+00   0.000000000000e+00   0.000000000000e+00   0.000000000000e+00   0.000000000000e+00   0.000000000000e+00   0.000000000000e+00 
  0.000000000000e+00   0.000000000000e+00   0.000000000000e+00   0.000000000000e+00   0.000000000000e+00   0.000000000000e+00   0.000000000000e+00   0.000000000000e+00   0.000000000000e+00 
  0.000000000000e+00   0.000000000000e+00   0.000000000000e+00   0.000000000000e+00   0.000000000000e+00   0.000000000000e+00   0.000000000000e+00   0.000000000000e+00   0.000000000000e+00 
  0.000000000000e+00   0.000000000000e+00   6.758275032043e-01   1.285822987556e+00   1.707803726196e+00   1.662536501884e+00   1.537041902542e+00   1.534271836281e+00   1.768880605698e+00 
  1.583637714386e+00   1.495463252068e+00   1.559585213661e+00   1.663577556610e+00   1.876631498337e+00   2.121309757233e+00   2.055220603943e+00   2.135611295700e+00   2.245108604431e+00 
  2.297233104706e+00   2.258282899857e+00   0.000000000000e+00   0.000000000000e+00   9.722918868065e-01   1.230983376503e+00   1.487588286400e+00   1.523460149765e+00   1.461214065552e+00 
  1.588944196701e+00   1.977480888367e+00   1.715330839157e+00   1.641558170319e+00   1.695315122604e+00   1.791687250137e+00   2.017485618591e+00   2.252625226974e+00   2.297369241714e+00 
  2.439909219742e+00   2.584997177124e+00   2.562120199203e+00   2.464941024780e+00   0.000000000000e+00   0.000000000000e+00   1.196814894676e+00   1.208406448364e+00   1.194975376129e+00 
  1.291087388992e+00   1.330712556839e+00   1.355326652527e+00   1.539472818375e+00   1.481806993484e+00   1.403535604477e+00   1.401905536652e+00   1.489870309830e+00   2.104247093201e+00 
  2.566571950912e+00   2.702772855759e+00   2.944691896439e+00   3.247269153595e+00   2.953840255737e+00   2.628738164902e+00   0.000000000000e+00   0.000000000000e+00   1.376728653908e+00 
  1.106179594994e+00   9.145904183388e-01   1.278248667717e+00   1.336453795433e+00   1.164908409119e+00   1.590427994728e+00   1.584036588669e+00   1.401938915253e+00   1.331898689270e+00 
  1.109333515167e+00   2.408004283905e+00   3.163043260574e+00   3.245802164078e+00   3.556740522385e+00   4.218695640564e+00   3.502710580826e+00   2.817108392715e+00   0.000000000000e+00 
  0.000000000000e+00   1.502912878990e+00   1.461593747139e+00   1.390087246895e+00   1.526187419891e+00   1.674203753471e+00   1.745423913002e+00   1.874077081680e+00   1.855387806892e+00 
  1.752721905708e+00   1.679347157478e+00   1.659399747849e+00   2.255480766296e+00   2.736538410187e+00   2.862834215164e+00   3.095676422119e+00   3.326239109039e+00   2.994200229645e+00 
  2.679241895676e+00   0.000000000000e+00   0.000000000000e+00   1.764450669289e+00   1.744671940804e+00   1.750847697258e+00   1.858916163445e+00   1.993081212044e+00   2.104383945465e+00 
  2.197966098785e+00   2.124091625214e+00   2.040301561356e+00   1.983142733574e+00   2.008064985275e+00   2.245639562607e+00   2.494410991669e+00   2.600555896759e+00   2.694070577621e+00 
  2.760668516159e+00   2.650127172470e+00   2.504048109055e+00   0.000000000000e+00   0.000000000000e+00   1.871454715729e+00   1.838258862495e+00   1.839012861252e+00   1.920947670937e+00 
  2.101262331009e+00   2.318951845169e+00   2.462824344635e+00   2.319070339203e+00   2.173887014389e+00   2.027724027634e+00   1.919995665550e+00   1.953998327255e+00   2.027995347977e+00 
  2.064913511276e+00   2.087792873383e+00   2.097426891327e+00   2.088209867477e+00   2.049426078796e+00   0.000000000000e+00   0.000000000000e+00   2.114196538925e+00   2.048172950745e+00 
  1.967681407928e+00   2.129577398300e+00   2.478267431259e+00   2.741616010666e+00   2.828397989273e+00   2.674205303192e+00   2.528865814209e+00   2.387434482574e+00   2.166043996811e+00 
  2.089792013168e+00   2.074306964874e+00   1.995657563210e+00   1.944014191628e+00   1.934374332428e+00   1.912029862404e+00   1.899955511093e+00   0.000000000000e+00   0.000000000000e+00 
  2.161417484283e+00   1.990218162537e+00   1.651263117790e+00   1.881742119789e+00   2.737524271011e+00   3.106726646423e+00   3.004609107971e+00   2.891271829605e+00   2.912798643112e+00 
  2.775150299072e+00   2.378685474396e+00   2.231975078583e+00   2.248113155365e+00   2.204692363739e+00   2.188189268112e+00   2.197165012360e+00   2.181657552719e+00   2.187238216400e+00 
  0.000000000000e+00   0.000000000000e+00   2.182535648346e+00   1.773802518845e+00   2.048691034317e+00   1.517143607140e+00   2.889924049377e+00   3.560793399811e+00   3.218891382217e+00 
  3.215045690536e+00   3.550647497177e+00   3.497314691544e+00   3.644586801529e+00   3.540973186493e+00   3.745319843292e+00   3.907158851624e+00   3.989229440689e+00   4.025415420532e+00 
  4.033346176147e+00   4.047903537750e+00   0.000000000000e+00   0.000000000000e+00   2.269928693771e+00   2.189221620560e+00   2.019538164139e+00   2.071061849594e+00   2.924436569214e+00 
  3.099668264389e+00   2.996142625809e+00   3.158350706100e+00   3.400314331055e+00   3.645008087158e+00   3.898634195328e+00   4.007097244263e+00   4.233407020569e+00   4.416893959045e+00 
  4.463822841644e+00   4.437652111053e+00   4.415904521942e+00   4.402584552765e+00   0.000000000000e+00   0.000000000000e+00   1.915599107742e+00   2.291348934174e+00   3.243919610977e+00 
  2.706576347351e+00   3.058357954025e+00   2.625979900360e+00   2.669123888016e+00   3.292574405670e+00   3.377545595169e+00   3.875942230225e+00   3.973410844803e+00   4.184130668640e+00 
  4.395478725433e+00   4.602005004883e+00   4.680265903473e+00   4.650800228119e+00   4.600666046143e+00   4.591309547424e+00   0.000000000000e+00   0.000000000000e+00   2.185719728470e+00 
  2.777789831161e+00   4.634366035461e+00   4.125708103180e+00   3.862414598465e+00   3.234639406204e+00   3.258100748062e+00   3.894343852997e+00   4.739666461945e+00   4.336121082306e+00 
  4.287236213684e+00   4.637116909027e+00   4.804136753082e+00   4.972682952881e+00   5.025674819946e+00   5.018963813782e+00   5.004111766815e+00   5.023842811584e+00   0.000000000000e+00 
  0.000000000000e+00   2.593292474747e+00   3.116537570953e+00   4.301604270935e+00   4.119031429291e+00   4.021988391876e+00   3.789222955704e+00   3.816396951675e+00   4.083283424377e+00 
  4.534155368805e+00   4.487322807312e+00   4.625103473663e+00   4.880627155304e+00   5.061997413635e+00   5.213201522827e+00   5.282752513885e+00   5.309738636017e+00   5.329723834991e+00 
  5.333161354065e+00   0.000000000000e+00   0.000000000000e+00   3.595655918121e+00   3.781200885773e+00   4.117149353027e+00   4.177363872528e+00   4.172340393066e+00   4.155343055725e+00 
  4.202679634094e+00   4.322456836700e+00   4.501949310303e+00   4.692603588104e+00   4.894767284393e+00   5.088612079620e+00   5.250993251801e+00   5.381725311279e+00   5.476250171661e+00 
  5.526882648468e+00   5.592929840088e+00   5.520693778992e+00   0.000000000000e+00   0.000000000000e+00   4.075668811798e+00   4.154395103455e+00   4.288497924805e+00   4.371402263641e+00 
  4.423025131226e+00   4.467116355896e+00   4.539922237396e+00   4.654666900635e+00   4.796216487885e+00   4.947690486908e+00   5.105884552002e+00   5.264471530914e+00   5.410772800446e+00 
  5.527934551239e+00   5.616662979126e+00   5.678260326385e+00   5.750482082367e+00   5.693723201752e+00   0.000000000000e+00   0.000000000000e+00   4.384533405304e+00   4.424027919769e+00 
  4.491332530975e+00   4.560747623444e+00   4.621736526489e+00   4.685677051544e+00   4.751814842224e+00   4.843233108521e+00   4.963562011719e+00   5.099874973297e+00   5.244213581085e+00 
  5.373930454254e+00   5.501098155975e+00   5.614023685455e+00   5.724408626556e+00   5.789434432983e+00   5.828806400299e+00   5.850415706635e+00   0.000000000000e+00   0.000000000000e+00 
  4.461096286774e+00   4.494216918945e+00   4.577821254730e+00   4.648100852966e+00   4.698992729187e+00   4.753455162048e+00   4.842753887177e+00   4.945334911346e+00   5.061707019806e+00 
  5.185208797455e+00   5.311058044434e+00   5.454947948456e+00   5.590708732605e+00   5.709177494049e+00   5.775013446808e+00   5.836343765259e+00   5.868607044220e+00   5.899964809418e+00 
  0.000000000000e+00   0.000000000000e+00   0.000000000000e+00   0.000000000000e+00   0.000000000000e+00   0.000000000000e+00   0.000000000000e+00   0.000000000000e+00   0.000000000000e+00 
  0.000000000000e+00   0.000000000000e+00   0.000000000000e+00   0.000000000000e+00   0.000000000000e+00   0.000000000000e+00   0.000000000000e+00   0.000000000000e+00   0.000000000000e+00 
  0.000000000000e+00   0.000000000000e+00   0.000000000000e+00   0.000000000000e+00   0.000000000000e+00   0.000000000000e+00   0.000000000000e+00   0.000000000000e+00   0.000000000000e+00 
  0.000000000000e+00   0.000000000000e+00   0.000000000000e+00   0.000000000000e+00   0.000000000000e+00   0.000000000000e+00   0.000000000000e+00   0.000000000000e+00   0.000000000000e+00 
  0.000000000000e+00   0.000000000000e+00   0.000000000000e+00   0.000000000000e+00   0.000000000000e+00   0.000000000000e+00   2.910245954990e-01   4.433822333813e-01   5.614261031151e-01 
  5.448257923126e-01   4.358642399311e-01   4.892689585686e-01   7.828307151794e-01   5.013039112091e-01   4.226649701595e-01   4.736540615559e-01   5.343458056450e-01   5.726733207703e-01 
  5.787876248360e-01   5.720770955086e-01   6.439912319183e-01   7.486903071404e-01   7.948717474937e-01   7.504410147667e-01   0.000000000000e+00   0.000000000000e+00   4.917595386505e-01 
  4.144972801208e+00   1.060040473938e+00   5.336895465851e+00   7.282843589783e-01   4.667258262634e+00   1.442744374275e+00   1.606015920639e+00   8.402283191681e-01   1.368970155716e+00 
  6.265642642975e-01   2.323404788971e+00   1.151393651962e+00   8.120930194855e-01   2.540290832520e+00   2.052054882050e+00   1.667558908463e+00   5.066243410110e-01   0.000000000000e+00 
  0.000000000000e+00   4.984731376171e-01   4.964900016785e-01   4.770211577415e-01   4.893848598003e-01   4.792251288891e-01   5.028167963028e-01   7.088479399681e-01   4.325132071972e-01 
  3.738285601139e-01   4.243734478951e-01   5.586507320404e-01   7.519751191139e-01   8.892452716827e-01   9.228950738907e-01   1.046222686768e+00   1.192569017410e+00   1.132513403893e+00 
  1.046150326729e+00   0.000000000000e+00   0.000000000000e+00   5.869746804237e-01   5.449999570847e-01   5.238191485405e-01   6.062723994255e-01   6.750651597977e-01   7.212067246437e-01 
  8.290890455246e-01   7.876867651939e-01   7.146766185760e-01   6.786370873451e-01   7.114936709404e-01   1.050565600395e+00   1.315948247910e+00   1.401783585548e+00   1.519648790359e+00 
  1.654231309891e+00   1.499749064445e+00   1.299458146095e+00   0.000000000000e+00   0.000000000000e+00   7.410754561424e-01   7.076363563538e-01   7.089111208916e-01   7.688161730766e-01 
  8.389896154404e-01   9.039908647537e-01   9.815660119057e-01   9.384257197380e-01   8.776315450668e-01   8.566274046898e-01   8.902084827423e-01   1.088718771935e+00   1.293049931526e+00 
  1.385908246040e+00   1.459036827087e+00   1.504816770554e+00   1.446512103081e+00   1.347319722176e+00   0.000000000000e+00   0.000000000000e+00   9.202542901039e-01   8.745883107185e-01 
  8.643032312393e-01   9.055210351944e-01   1.015592813492e+00   1.236720204353e+00   1.450346589088e+00   1.201090931892e+00   1.038205623627e+00   9.918766021729e-01   9.949479103088e-01 
  1.078610777855e+00   1.182357668877e+00   1.246038317680e+00   1.289627671242e+00   1.316274166107e+00   1.291245460510e+00   1.235496044159e+00   0.000000000000e+00   0.000000000000e+00 