# vtk DataFile Version 2.0
Written using VisIt writer
ASCII
DATASET RECTILINEAR_GRID
DIMENSIONS 20 20 20
X_COORDINATES 20 float
  0.000000000000e+00   1.000000000000e+00   2.000000000000e+00   3.000000000000e+00   4.000000000000e+00   5.000000000000e+00   6.000000000000e+00   7.000000000000e+00   8.000000000000e+00 
  9.000000000000e+00   1.000000000000e+01   1.100000000000e+01   1.200000000000e+01   1.300000000000e+01   1.400000000000e+01   1.500000000000e+01   1.600000000000e+01   1.700000000000e+01 
  1.800000000000e+01   1.900000000000e+01 
Y_COORDINATES 20 float
  0.000000000000e+00   1.000000000000e+00   2.000000000000e+00   3.000000000000e+00   4.000000000000e+00   5.000000000000e+00   6.000000000000e+00   7.000000000000e+00   8.000000000000e+00 
  9.000000000000e+00   1.000000000000e+01   1.100000000000e+01   1.200000000000e+01   1.300000000000e+01   1.400000000000e+01   1.500000000000e+01   1.600000000000e+01   1.700000000000e+01 
  1.800000000000e+01   1.900000000000e+01 
Z_COORDINATES 20 float
  0.000000000000e+00   1.000000000000e+00   2.000000000000e+00   3.000000000000e+00   4.000000000000e+00   5.000000000000e+00   6.000000000000e+00   7.000000000000e+00   8.000000000000e+00 
  9.000000000000e+00   1.000000000000e+01   1.100000000000e+01   1.200000000000e+01   1.300000000000e+01   1.400000000000e+01   1.500000000000e+01   1.600000000000e+01   1.700000000000e+01 
  1.800000000000e+01   1.900000000000e+01 
CELL_DATA 6859
POINT_DATA 8000
SCALARS pressure float
LOOKUP_TABLE default
  0.000000000000e+00   0.000000000000e+00   0.000000000000e+00   0.000000000000e+00   0.000000000000e+00   0.000000000000e+00   0.000000000000e+00   0.000000000000e+00   0.000000000000e+00 
  0.000000000000e+00   0.000000000000e+00   0.000000000000e+00   0.000000000000e+00   0.000000000000e+00   0.000000000000e+00   0.000000000000e+00   0.000000000000e+00   0.000000000000e+00 
  0.000000000000e+00   0.000000000000e+00   0.000000000000e+00   0.000000000000e+00   0.000000000000e+00   0.000000000000e+00   0.000000000000e+00   0.000000000000e+00   0.000000000000e+00 
  0.000000000000e+00   0.000000000000e+00   0.000000000000e+00   0.000000000000e+00   0.000000000000e+00   0.000000000000e+00   0.000000000000e+00   0.000000000000e+00   0.000000000000e+00 
  0.000000000000e+00   0.000000000000e+00   0.000000000000e+00   0.000000000000e+00   0.000000000000e+00   0.000000000000e+00   0.000000000000e+00   0.000000000000e+00   0.000000000000e+00 
  0.000000000000e+00   0.000000000000e+00   0.000000000000e+00   0.000000000000e+00   0.000000000000e+00   0.000000000000e+00   0.000000000000e+00   0.000000000000e+00   0.000000000000e+00 
  0.000000000000e+00   0.000000000000e+00   0.000000000000e+00   0.000000000000e+00   0.000000000000e+00   0.000000000000e+00   0.000000000000e+00   0.000000000000e+00   0.000000000000e+00 
  0.000000000000e+00   0.000000000000e+00   0.000000000000e+00   0.000000000000e+00   0.000000000000e+00   0.000000000000e+00   0.000000000000e+00   0.000000000000e+00   0.000000000000e+00 
  0.000000000000e+00   0.000000000000e+00   0.000000000000e+00   0.000000000000e+00   0.000000000000e+00   0.000000000000e+00   0.000000000000e+00   0.000000000000e+00   0.000000000000e+00 
  0.000000000000e+00   0.000000000000e+00   0.000000000000e+00   0.000000000000e+00   0.000000000000e+00   0.000000000000e+00   0.000000000000e+00   0.000000000000e+00   0.000000000000e+00 
  0.000000000000e+00   0.000000000000e+00   0.000000000000e+00   0.000000000000e+00   0.000000000000e+00   0.000000000000e+00   0.000000000000e+00   0.000000000000e+00   0.000000000000e+00 
  0.000000000000e+00   0.000000000000e+00   0.000000000000e+00   0.000000000000e+00   0.000000000000e+00   0.000000000000e+00   0.000000000000e+00   0.000000000000e+00   0.000000000000e+00 
  0.000000000000e+00   0.000000000000e+00   0.000000000000e+00   0.000000000000e+00   0.000000000000e+00   0.000000000000e+00   0.000000000000e+00   0.000000000000e+00   0.000000000000e+00 
  0.000000000000e+00   0.000000000000e+00   0.000000000000e+00   0.000000000000e+00   0.000000000000e+00   0.000000000000e+00   0.000000000000e+00   0.000000000000e+00   0.000000000000e+00 
  0.000000000000e+00   0.000000000000e+00   0.000000000000e+00   0.000000000000e+00   0.000000000000e+00   0.000000000000e+00   0.000000000000e+00   0.000000000000e+00   0.000000000000e+00 
  0.000000000000e+00   0.000000000000e+00   0.000000000000e+00   0.000000000000e+00   0.000000000000e+00   0.000000000000e+00   0.000000000000e+00   0.000000000000e+00   0.000000000000e+00 
  0.000000000000e+00   0.000000000000e+00   0.000000000000e+00   0.000000000000e+00   0.000000000000e+00   0.000000000000e+00   0.000000000000e+00   0.000000000000e+00   0.000000000000e+00 
  0.000000000000e+00   0.000000000000e+00   0.000000000000e+00   0.000000000000e+00   0.000000000000e+00   0.000000000000e+00   0.000000000000e+00   0.000000000000e+00   0.000000000000e+00 
  0.000000000000e+00   0.000000000000e+00   0.000000000000e+00   0.000000000000e+00   0.000000000000e+00   0.000000000000e+00   0.000000000000e+00   0.000000000000e+00   0.000000000000e+00 
  0.000000000000e+00   0.000000000000e+00   0.000000000000e+00   0.000000000000e+00   0.000000000000e+00   0.000000000000e+00   0.000000000000e+00   0.000000000000e+00   0.000000000000e+00 
  0.000000000000e+00   0.000000000000e+00   0.000000000000e+00   0.000000000000e+00   0.000000000000e+00   0.000000000000e+00   0.000000000000e+00   0.000000000000e+00   0.000000000000e+00 
  0.000000000000e+00   0.000000000000e+00   0.000000000000e+00   0.000000000000e+00   0.000000000000e+00   0.000000000000e+00   0.000000000000e+00   0.000000000000e+00   0.000000000000e+00 
  0.000000000000e+00   0.000000000000e+00   0.000000000000e+00   0.000000000000e+00   0.000000000000e+00   0.000000000000e+00   0.000000000000e+00   0.000000000000e+00   0.000000000000e+00 
  0.000000000000e+00   0.000000000000e+00   0.000000000000e+00   0.000000000000e+00   0.000000000000e+00   0.000000000000e+00   0.000000000000e+00   0.000000000000e+00   0.000000000000e+00 
  0.000000000000e+00   0.000000000000e+00   0.000000000000e+00   0.000000000000e+00   0.000000000000e+00   0.000000000000e+00   0.000000000000e+00   0.000000000000e+00   0.000000000000e+00 
  0.000000000000e+00   0.000000000000e+00   0.000000000000e+00   0.000000000000e+00   0.000000000000e+00   0.000000000000e+00   0.000000000000e+00   0.000000000000e+00   0.000000000000e+00 
  0.000000000000e+00   0.000000000000e+00   0.000000000000e+00   0.000000000000e+00   0.000000000000e+00   0.000000000000e+00   0.000000000000e+00   0.000000000000e+00   0.000000000000e+00 
  0.000000000000e+00   0.000000000000e+00   0.000000000000e+00   0.000000000000e+00   0.000000000000e+00   0.000000000000e+00   0.000000000000e+00   0.000000000000e+00   0.000000000000e+00 
  0.000000000000e+00   0.000000000000e+00   0.000000000000e+00   0.000000000000e+00   0.000000000000e+00   0.000000000000e+00   0.000000000000e+00   0.000000000000e+00   0.000000000000e+00 
  0.000000000000e+00   0.000000000000e+00   0.000000000000e+00   0.000000000000e+00   0.000000000000e+00   0.000000000000e+00   0.000000000000e+00   0.000000000000e+00   0.000000000000e+00 
  0.000000000000e+00   0.000000000000e+00   0.000000000000e+00   0.000000000000e+00   0.000000000000e+00   0.000000000000e+00   0.000000000000e+00   0.000000000000e+00   0.000000000000e+00 
  0.000000000000e+00   0.000000000000e+00   0.000000000000e+00   0.000000000000e+00   0.000000000000e+00   0.000000000000e+00   0.000000000000e+00   0.000000000000e+00   0.000000000000e+00 
  0.000000000000e+00   0.000000000000e+00   0.000000000000e+00   0.000000000000e+00   0.000000000000e+00   0.000000000000e+00   0.000000000000e+00   0.000000000000e+00   0.000000000000e+00 
  0.000000000000e+00   0.000000000000e+00   0.000000000000e+00   0.000000000000e+00   0.000000000000e+00   0.000000000000e+00   0.000000000000e+00   0.000000000000e+00   0.000000000000e+00 
  0.000000000000e+00   0.000000000000e+00   0.000000000000e+00   0.000000000000e+00   0.000000000000e+00   0.000000000000e+00   0.000000000000e+00   0.000000000000e+00   0.000000000000e+00 
  0.000000000000e+00   0.000000000000e+00   0.000000000000e+00   0.000000000000e+00   0.000000000000e+00   0.000000000000e+00   0.000000000000e+00   0.000000000000e+00   0.000000000000e+00 
  0.000000000000e+00   0.000000000000e+00   0.000000000000e+00   0.000000000000e+00   0.000000000000e+00   0.000000000000e+00   0.000000000000e+00   0.000000000000e+00   0.000000000000e+00 
  0.000000000000e+00   0.000000000000e+00   0.000000000000e+00   0.000000000000e+00   0.000000000000e+00   0.000000000000e+00   0.000000000000e+00   0.000000000000e+00   0.000000000000e+00 
  0.000000000000e+00   0.000000000000e+00   0.000000000000e+00   0.000000000000e+00   0.000000000000e+00   0.000000000000e+00   0.000000000000e+00   0.000000000000e+00   0.000000000000e+00 
  0.000000000000e+00   0.000000000000e+00   0.000000000000e+00   0.000000000000e+00   0.000000000000e+00   0.000000000000e+00   0.000000000000e+00   0.000000000000e+00   0.000000000000e+00 
  0.000000000000e+00   0.000000000000e+00   0.000000000000e+00   0.000000000000e+00   0.000000000000e+00   0.000000000000e+00   0.000000000000e+00   0.000000000000e+00   0.000000000000e+00 
  0.000000000000e+00   0.000000000000e+00   0.000000000000e+00   0.000000000000e+00   0.000000000000e+00   0.000000000000e+00   0.000000000000e+00   0.000000000000e+00   0.000000000000e+00 
  0.000000000000e+00   0.000000000000e+00   0.000000000000e+00   0.000000000000e+00   0.000000000000e+00   0.000000000000e+00   0.000000000000e+00   0.000000000000e+00   0.000000000000e+00 
  0.000000000000e+00   0.000000000000e+00   0.000000000000e+00   0.000000000000e+00   0.000000000000e+00   0.000000000000e+00   0.000000000000e+00   0.000000000000e+00   0.000000000000e+00 
  0.000000000000e+00   0.000000000000e+00   0.000000000000e+00   0.000000000000e+00   0.000000000000e+00   0.000000000000e+00   0.000000000000e+00   0.000000000000e+00   0.000000000000e+00 
  0.000000000000e+00   0.000000000000e+00   0.000000000000e+00   0.000000000000e+00   0.000000000000e+00   0.000000000000e+00   0.000000000000e+00   0.000000000000e+00   0.000000000000e+00 
  0.000000000000e+00   0.000000000000e+00   0.000000000000e+00   0.000000000000e+00   0.000000000000e+00   0.000000000000e+00   0.000000000000e+00   1.793235778809e+01   1.775711822510e+01 
  1.737999343872e+01   1.674309730530e+01   1.574968338013e+01   1.426707172394e+01   1.214075851440e+01   9.407413482666e+00   6.708311557770e+00   4.990668773651e+00   3.969314575195e+00 
  3.365872383118e+00   3.005997180939e+00   2.789191246033e+00   2.658213853836e+00   2.580279111862e+00   2.539214372635e+00   2.507604122162e+00   0.000000000000e+00   0.000000000000e+00 
  1.916455078125e+01   1.899848175049e+01   1.863997459412e+01   1.802888679504e+01   1.705085945129e+01   1.551800251007e+01   1.306617736816e+01   9.398460388184e+00   5.246814250946e+00 
  3.619962215424e+00   2.824009418488e+00   2.387667894363e+00   2.134381055832e+00   1.982980608940e+00   1.891564011574e+00   1.837084770203e+00   1.808919191360e+00   1.785425066948e+00 
  0.000000000000e+00   0.000000000000e+00   2.302953529358e+01   2.290142059326e+01   2.262479972839e+01   2.214624977112e+01   2.133753585815e+01   1.988598632812e+01   1.671772956848e+01 
  1.037770366669e+01   7.103773593903e+00   7.733188152313e+00   8.074729919434e+00   8.299065589905e+00   8.460216522217e+00   8.579392433167e+00   8.666935920715e+00   8.728754997253e+00 
  8.768085479736e+00   8.783175468445e+00   0.000000000000e+00   0.000000000000e+00   1.685010147095e+01   1.672626304626e+01   1.645512962341e+01   1.598467063904e+01   1.521930980682e+01 
  1.406040191650e+01   1.200769519806e+01   8.299134254456e+00   4.450686454773e+00   3.139996528625e+00   2.549788475037e+00   2.243415832520e+00   2.070548295975e+00   1.968363642693e+00 
  1.906744241714e+00   1.869947075844e+00   1.851200461388e+00   1.833829164505e+00   0.000000000000e+00   0.000000000000e+00   1.227893447876e+01   1.217649745941e+01   1.194752693176e+01 
  1.155666065216e+01   1.093579292297e+01   1.002147388458e+01   8.705276489258e+00   6.808229446411e+00   5.021206378937e+00   3.947978973389e+00   3.325725078583e+00   2.964966535568e+00 
  2.750050306320e+00   2.619388580322e+00   2.539406776428e+00   2.491285324097e+00   2.465802907944e+00   2.444814443588e+00   0.000000000000e+00   0.000000000000e+00   8.541113853455e+00 
  8.447164535522e+00   8.260824203491e+00   7.976101398468e+00   7.553362369537e+00   6.946590900421e+00   6.147703170776e+00   5.186747074127e+00   4.253540039062e+00   3.559267759323e+00 
  3.097032546997e+00   2.802942037582e+00   2.617990016937e+00   2.502083301544e+00   2.429946660995e+00   2.386225700378e+00   2.362618923187e+00   2.344363927841e+00   0.000000000000e+00 
  0.000000000000e+00   4.680838584900e+00   4.648252010345e+00   4.593920230865e+00   4.436788082123e+00   4.209950447083e+00   3.903108119965e+00   3.512433290482e+00   3.065115690231e+00 
  2.632936477661e+00   2.287039279938e+00   2.037566900253e+00   1.867602825165e+00   1.755347728729e+00   1.682657718658e+00   1.636464238167e+00   1.608223438263e+00   1.592753887177e+00 
  1.581193923950e+00   0.000000000000e+00   0.000000000000e+00   5.526375293732e+00   5.520020008087e+00   5.498830795288e+00   5.488911151886e+00   5.475068569183e+00   5.448493957520e+00 
  5.410484790802e+00   5.364060878754e+00   5.319737434387e+00   5.283372402191e+00   5.254737854004e+00   5.232063293457e+00   5.213720321655e+00   5.198524951935e+00   5.185802459717e+00 
  5.175985813141e+00   5.168106555939e+00   5.162447929382e+00   0.000000000000e+00   0.000000000000e+00   2.109287500381e+00   2.178197860718e+00   2.310161828995e+00   2.423547267914e+00 
  2.497621059418e+00   2.536084413528e+00   2.546403169632e+00   2.538239240646e+00   2.521458864212e+00   2.503480911255e+00   2.488665819168e+00   2.478693485260e+00   2.473467111588e+00 
  2.472276449203e+00   2.473921537399e+00   2.477352619171e+00   2.480464935303e+00   2.481817483902e+00   0.000000000000e+00   0.000000000000e+00   2.606821775436e+00   2.770170450211e+00 
  3.127123594284e+00   3.423223018646e+00   3.615004062653e+00   3.723531484604e+00   3.776372909546e+00   3.795701265335e+00   3.797399044037e+00   3.792566299438e+00   3.788142442703e+00 
  3.787134170532e+00   3.789657831192e+00   3.796684265137e+00   3.806924104691e+00   3.818639993668e+00   3.827517986298e+00   3.835010051727e+00   0.000000000000e+00   0.000000000000e+00 
  1.845970153809e+00   2.113816261292e+00   3.078862428665e+00   3.687925577164e+00   4.024735927582e+00   4.207011222839e+00   4.303380966187e+00   4.351623058319e+00   4.374239921570e+00 
  4.385311126709e+00   4.390973091125e+00   4.395359039307e+00   4.406972408295e+00   4.426251411438e+00   4.448019981384e+00   4.470514297485e+00   4.487582206726e+00   4.502636909485e+00 
  0.000000000000e+00   0.000000000000e+00   6.532137393951e+00   6.494447231293e+00   3.115524768829e+00   4.186668872833e+00   4.652824878693e+00   4.890686988831e+00   5.023482322693e+00 
  5.102141857147e+00   5.154624462128e+00   5.198474407196e+00   5.230088233948e+00   5.248704910278e+00   5.284422874451e+00   5.330852031708e+00   5.375434875488e+00   5.418437957764e+00 
  5.452775478363e+00   5.479134559631e+00   0.000000000000e+00   0.000000000000e+00   3.167818546295e+00   3.345305204391e+00   4.307416915894e+00   4.931350231171e+00   5.294883251190e+00 
  5.512551784515e+00   5.649566173553e+00   5.741450309753e+00   5.809594631195e+00   5.857800006866e+00   5.899945735931e+00   6.024757862091e+00   6.063319683075e+00   6.118591785431e+00 
  6.194596290588e+00   6.267839431763e+00   6.328619480133e+00   6.368239402771e+00   0.000000000000e+00   0.000000000000e+00   5.391588211060e+00   5.019298553467e+00   5.339807987213e+00 
  5.645767211914e+00   5.885128974915e+00   6.057198524475e+00   6.184244155884e+00   6.281887531281e+00   6.362084388733e+00   6.428422451019e+00   6.506217002869e+00   6.686250209808e+00 
  6.751146316528e+00   6.831997394562e+00   6.944507598877e+00   7.059130668640e+00   7.172800540924e+00   7.248994350433e+00   0.000000000000e+00   0.000000000000e+00   5.661630630493e+00 
  6.012273788452e+00   6.249701976776e+00   6.437863349915e+00   6.613273620605e+00   6.750526428223e+00   6.868141651154e+00   6.972741127014e+00   7.063492774963e+00   7.153162002563e+00 
  7.232185840607e+00   7.311020374298e+00   7.423786640167e+00   7.564446926117e+00   7.717755317688e+00   7.884451866150e+00   8.090448379517e+00   8.104926109314e+00   0.000000000000e+00 
  0.000000000000e+00   7.168800830841e+00   6.789258480072e+00   7.007918834686e+00   7.135761260986e+00   7.254551410675e+00   7.354557514191e+00   7.460278987885e+00   7.581809043884e+00 
  7.660825252533e+00   7.757993221283e+00   7.870960235596e+00   8.010069847107e+00   8.155893325806e+00   8.319071769714e+00   8.496678352356e+00   8.686029434204e+00   8.951544761658e+00 
  9.359169006348e+00   0.000000000000e+00   0.000000000000e+00   6.168745040894e+00   7.146767139435e+00   7.491337776184e+00   7.611480712891e+00   7.662099361420e+00   7.708782196045e+00 
  7.853957653046e+00   7.980805397034e+00   8.039998054504e+00   8.161701202393e+00   8.301014900208e+00   8.414810180664e+00   8.612028121948e+00   8.764923095703e+00   8.991101264954e+00 
  9.259672164917e+00   9.271901130676e+00   9.218903541565e+00   0.000000000000e+00   0.000000000000e+00   9.204304695129e+00   7.821965694427e+00   7.702209472656e+00   8.160952568054e+00 
  8.143198013306e+00   8.284355163574e+00   8.111804962158e+00   8.277012825012e+00   8.378669738770e+00   8.513078689575e+00   8.613133430481e+00   8.832653045654e+00   8.941886901855e+00 
  9.204468727112e+00   9.576792716980e+00   9.972539901733e+00   9.981839179993e+00   1.041880702972e+01   0.000000000000e+00   0.000000000000e+00   0.000000000000e+00   0.000000000000e+00 
  0.000000000000e+00   0.000000000000e+00   0.000000000000e+00   0.000000000000e+00   0.000000000000e+00   0.000000000000e+00   0.000000000000e+00   0.000000000000e+00   0.000000000000e+00 
  0.000000000000e+00   0.000000000000e+00   0.000000000000e+00   0.000000000000e+00   0.000000000000e+00   0.000000000000e+00   0.000000000000e+00   0.000000000000e+00   0.000000000000e+00 
  0.000000000000e+00   0.000000000000e+00   0.000000000000e+00   0.000000000000e+00   0.000000000000e+00   0.000000000000e+00   0.000000000000e+00   0.000000000000e+00   0.000000000000e+00 
  0.000000000000e+00   0.000000000000e+00   0.000000000000e+00   0.000000000000e+00   0.000000000000e+00   0.000000000000e+00   0.000000000000e+00   0.000000000000e+00   0.000000000000e+00 
  0.000000000000e+00   0.000000000000e+00   1.502983760834e+01   1.486312675476e+01   1.450721359253e+01   1.391575527191e+01   1.301760482788e+01   1.172891521454e+01   9.991790771484e+00 
  7.896809577942e+00   5.847276687622e+00   4.378289222717e+00   3.431539058685e+00   2.842073440552e+00   2.477998018265e+00   2.253319740295e+00   2.115292072296e+00   2.032191753387e+00 
  1.987689852715e+00   1.954974651337e+00   0.000000000000e+00   0.000000000000e+00   1.535716724396e+01   1.519796180725e+01   1.485692596436e+01   1.428523540497e+01   1.339898204803e+01 
  1.208267498016e+01   1.020884323120e+01   7.765486717224e+00   5.241311073303e+00   3.751103401184e+00   2.891976594925e+00   2.384132862091e+00   2.076761960983e+00   1.888159751892e+00 
  1.772273659706e+00   1.702381014824e+00   1.665191769600e+00   1.636718750000e+00   0.000000000000e+00   0.000000000000e+00   1.640198135376e+01   1.626567649841e+01   1.597237873077e+01 
  1.547396087646e+01   1.467768096924e+01   1.341267013550e+01   1.131199073792e+01   8.052583694458e+00   4.396979331970e+00   3.016386032104e+00   2.345288753510e+00   1.972637414932e+00 
  1.751432895660e+00   1.616104483604e+00   1.532721638680e+00   1.482233285904e+00   1.455510854721e+00   1.433594346046e+00   0.000000000000e+00   0.000000000000e+00   1.300083255768e+01 
  1.287519645691e+01   1.260436344147e+01   1.214618587494e+01   1.142531776428e+01   1.035792636871e+01   8.807290077209e+00   6.625752449036e+00   4.430704116821e+00   3.207343339920e+00 
  2.527076959610e+00   2.135296344757e+00   1.901330351830e+00   1.758340597153e+00   1.670336604118e+00   1.617089629173e+00   1.588776946068e+00   1.566203594208e+00   0.000000000000e+00 
  0.000000000000e+00   1.008951568604e+01   9.987853050232e+00   9.768443107605e+00   9.401925086975e+00   8.838311195374e+00   8.026229858398e+00   6.941508769989e+00   5.598075866699e+00 
  4.282745361328e+00   3.356704473495e+00   2.768520116806e+00   2.405244827271e+00   2.179970264435e+00   2.039448022842e+00   1.951992630959e+00   1.898796319962e+00   1.870069622993e+00 
  1.848072290421e+00   0.000000000000e+00   0.000000000000e+00   7.418344497681e+00   7.341236591339e+00   7.177412033081e+00   6.916342258453e+00   6.525924682617e+00   5.979530811310e+00 
  5.278688430786e+00   4.463281154633e+00   3.671904802322e+00   3.051826953888e+00   2.618587017059e+00   2.331580638885e+00   2.145533800125e+00   2.026360750198e+00   1.951048851013e+00 
  1.904910802841e+00   1.879702568054e+00   1.860938549042e+00   0.000000000000e+00   0.000000000000e+00   4.753498077393e+00   4.715858459473e+00   4.633116722107e+00   4.482668399811e+00 
  4.255435943604e+00   3.943941116333e+00   3.555003643036e+00   3.117648601532e+00   2.692538499832e+00   2.339505195618e+00   2.075556039810e+00   1.890379428864e+00   1.765313148499e+00 
  1.683044552803e+00   1.630267858505e+00   1.597850918770e+00   1.580017328262e+00   1.566931605339e+00   0.000000000000e+00   0.000000000000e+00   2.493272781372e+00   2.494161367416e+00 
  2.484736204147e+00   2.449909210205e+00   2.376835346222e+00   2.264150619507e+00   2.116811275482e+00   1.948192358017e+00   1.780759930611e+00   1.635148167610e+00   1.520406484604e+00 
  1.436128497124e+00   1.377377986908e+00   1.338221311569e+00   1.313246011734e+00   1.298452615738e+00   1.290508270264e+00   1.284590959549e+00   0.000000000000e+00   0.000000000000e+00 
  2.257209300995e+00   2.306396007538e+00   2.391649484634e+00   2.462885379791e+00   2.494579792023e+00   2.484151840210e+00   2.438951730728e+00   2.371314525604e+00   2.295701742172e+00 
  2.224518775940e+00   2.164956092834e+00   2.119551420212e+00   2.087833642960e+00   2.067805290222e+00   2.056657314301e+00   2.051894903183e+00   2.050080299377e+00   2.049106836319e+00 
  0.000000000000e+00   0.000000000000e+00   2.295679330826e+00   2.414673328400e+00   2.642133474350e+00   2.846384763718e+00   2.982300996780e+00   3.053778648376e+00   3.077360630035e+00 
  3.070280075073e+00   3.047504663467e+00   3.020476341248e+00   2.996425628662e+00   2.979012250900e+00   2.969298839569e+00   2.967003345490e+00   2.970318794250e+00   2.977171659470e+00 
  2.983203172684e+00   2.988592147827e+00   0.000000000000e+00   0.000000000000e+00   2.089593887329e+00   2.290510654449e+00   2.765962123871e+00   3.146613836288e+00   3.389109849930e+00 
  3.529646158218e+00   3.604457616806e+00   3.639430999756e+00   3.652646780014e+00   3.656572580338e+00   3.658932685852e+00   3.663927078247e+00   3.673841238022e+00   3.689383506775e+00 
  3.708622455597e+00   3.729429483414e+00   3.745808362961e+00   3.759681224823e+00   0.000000000000e+00   0.000000000000e+00   1.892311811447e+00   2.118486166000e+00   2.973414182663e+00 
  3.519829034805e+00   3.835823297501e+00   4.019782543182e+00   4.128223896027e+00   4.193089485168e+00   4.234954833984e+00   4.267474174500e+00   4.294660091400e+00   4.319927215576e+00 
  4.353377819061e+00   4.393718719482e+00   4.435164451599e+00   4.476325511932e+00   4.509549617767e+00   4.535197734833e+00   0.000000000000e+00   0.000000000000e+00   3.034456014633e+00 
  3.203823566437e+00   3.677437543869e+00   4.072715759277e+00   4.343768596649e+00   4.522253513336e+00   4.640635013580e+00   4.722204685211e+00   4.783520698547e+00   4.830587863922e+00 
  4.865803241730e+00   4.921378135681e+00   4.961851119995e+00   5.026253223419e+00   5.100367546082e+00   5.171969413757e+00   5.231999397278e+00   5.273811817169e+00   0.000000000000e+00 
  0.000000000000e+00   4.333050251007e+00   4.303729057312e+00   4.526866912842e+00   4.764944553375e+00   4.960646152496e+00   5.108743190765e+00   5.221998214722e+00   5.311714172363e+00 
  5.388552665710e+00   5.458262443542e+00   5.520091056824e+00   5.603316783905e+00   5.682804584503e+00   5.780752182007e+00   5.890300273895e+00   6.002494812012e+00   6.109948635101e+00 
  6.177267551422e+00   0.000000000000e+00   0.000000000000e+00   4.954623222351e+00   5.162584781647e+00   5.325819492340e+00   5.479339599609e+00   5.619355678558e+00   5.737386703491e+00 
  5.842782020569e+00   5.937210559845e+00   6.023870944977e+00   6.111778736115e+00   6.199921607971e+00   6.293659687042e+00   6.405877113342e+00   6.543283939362e+00   6.699433326721e+00 
  6.869579792023e+00   7.064115524292e+00   7.122278213501e+00   0.000000000000e+00   0.000000000000e+00   5.727766513824e+00   5.849413394928e+00   6.010223865509e+00   6.138245105743e+00 
  6.252521038055e+00   6.346778392792e+00   6.435581207275e+00   6.525324344635e+00   6.611211776733e+00   6.704856395721e+00   6.810136318207e+00   6.936519622803e+00   7.083973884583e+00 
  7.258096694946e+00   7.455890178680e+00   7.678633689880e+00   7.940758705139e+00   8.088068008423e+00   0.000000000000e+00   0.000000000000e+00   6.277195453644e+00   6.528828620911e+00 
  6.573219299316e+00   6.631266117096e+00   6.695051193237e+00   6.763238430023e+00   6.873967170715e+00   6.972035408020e+00   7.042407035828e+00   7.164323806763e+00   7.312156677246e+00 
  7.420408725739e+00   7.601126194000e+00   7.796046733856e+00   8.029334068298e+00   8.338355064392e+00   8.667213439941e+00   9.106754302979e+00   0.000000000000e+00   0.000000000000e+00 
  6.939535617828e+00   6.948065757751e+00   6.959463119507e+00   7.092395305634e+00   7.121056556702e+00   7.267562866211e+00   7.197466373444e+00   7.279906749725e+00   7.403866291046e+00 
  7.533672332764e+00   7.670862197876e+00   7.855019092560e+00   7.916745662689e+00   8.242988586426e+00   8.562329292297e+00   8.944648742676e+00   9.236439704895e+00   9.769737243652e+00 
  0.000000000000e+00   0.000000000000e+00   0.000000000000e+00   0.000000000000e+00   0.000000000000e+00   0.000000000000e+00   0.000000000000e+00   0.000000000000e+00   0.000000000000e+00 
  0.000000000000e+00   0.000000000000e+00   0.000000000000e+00   0.000000000000e+00   0.000000000000e+00   0.000000000000e+00   0.000000000000e+00   0.000000000000e+00   0.000000000000e+00 
  0.000000000000e+00   0.000000000000e+00   0.000000000000e+00   0.000000000000e+00   0.000000000000e+00   0.000000000000e+00   0.000000000000e+00   0.000000000000e+00   0.000000000000e+00 
  0.000000000000e+00   0.000000000000e+00   0.000000000000e+00   0.000000000000e+00   0.000000000000e+00   0.000000000000e+00   0.000000000000e+00   0.000000000000e+00   0.000000000000e+00 
  0.000000000000e+00   0.000000000000e+00   0.000000000000e+00   0.000000000000e+00   0.000000000000e+00   0.000000000000e+00   1.170523643494e+01   1.156027603149e+01   1.125432395935e+01 
  1.075648880005e+01   1.002463054657e+01   9.019334793091e+00   7.736492633820e+00   6.266799449921e+00   4.840205669403e+00   3.721353292465e+00   2.936609506607e+00   2.415078878403e+00 
  2.077327013016e+00   1.861762046814e+00   1.726181745529e+00   1.643220782280e+00   1.597980022430e+00   1.566200971603e+00   0.000000000000e+00   0.000000000000e+00   1.163150119781e+01 
  1.149261951447e+01   1.119869327545e+01   1.071748828888e+01   1.000132560730e+01   8.997543334961e+00   7.679177761078e+00   6.115348339081e+00   4.571542263031e+00   3.446013927460e+00 
  2.697842597961e+00   2.214704751968e+00   1.905706524849e+00   1.709285974503e+00   1.585772633553e+00   1.510119557381e+00   1.468900561333e+00   1.439530849457e+00   0.000000000000e+00 
  0.000000000000e+00   1.140390586853e+01   1.127860164642e+01   1.101242923737e+01   1.057304477692e+01   9.908628463745e+00   8.949567794800e+00   7.621171474457e+00   5.940916061401e+00 
  4.242331981659e+00   3.151935338974e+00   2.475135803223e+00   2.051498889923e+00   1.783827424049e+00   1.614238023758e+00   1.507533073425e+00   1.442040920258e+00   1.406343936920e+00 
  1.380376100540e+00   0.000000000000e+00   0.000000000000e+00   9.801095008850e+00   9.690351486206e+00   9.455050468445e+00   9.067207336426e+00   8.484030723572e+00   7.659708023071e+00 
  6.566870689392e+00   5.244926929474e+00   3.941579580307e+00   3.011538743973e+00   2.404870986938e+00   2.018231391907e+00   1.772428989410e+00   1.616269350052e+00   1.517793536186e+00 
  1.457221508026e+00   1.424035787582e+00   1.400107026100e+00   0.000000000000e+00   0.000000000000e+00   7.939796447754e+00   7.849519729614e+00   7.658793926239e+00   7.346841812134e+00 
  6.885700702667e+00   6.248407363892e+00   5.432375907898e+00   4.490623950958e+00   3.572491884232e+00   2.857585191727e+00   2.359030246735e+00   2.027328252792e+00   1.810780405998e+00 
  1.670977234840e+00   1.581961989403e+00   1.526942849159e+00   1.496569752693e+00   1.474938750267e+00   0.000000000000e+00   0.000000000000e+00   6.042186737061e+00   5.976944446564e+00 
  5.838323593140e+00   5.612471580505e+00   5.282384395599e+00   4.836820125580e+00   4.282713413239e+00   3.660579204559e+00   3.056608438492e+00   2.559362173080e+00   2.191046953201e+00 
  1.933939814568e+00   1.760448217392e+00   1.646030664444e+00   1.572242736816e+00   1.526381492615e+00   1.500916719437e+00   1.482843875885e+00   0.000000000000e+00   0.000000000000e+00 