# vtk DataFile Version 2.0
Written using VisIt writer
ASCII
DATASET RECTILINEAR_GRID
DIMENSIONS 20 20 20
X_COORDINATES 20 float
  0.000000000000e+00   1.000000000000e+00   2.000000000000e+00   3.000000000000e+00   4.000000000000e+00   5.000000000000e+00   6.000000000000e+00   7.000000000000e+00   8.000000000000e+00 
  9.000000000000e+00   1.000000000000e+01   1.100000000000e+01   1.200000000000e+01   1.300000000000e+01   1.400000000000e+01   1.500000000000e+01   1.600000000000e+01   1.700000000000e+01 
  1.800000000000e+01   1.900000000000e+01 
Y_COORDINATES 20 float
  0.000000000000e+00   1.000000000000e+00   2.000000000000e+00   3.000000000000e+00   4.000000000000e+00   5.000000000000e+00   6.000000000000e+00   7.000000000000e+00   8.000000000000e+00 
  9.000000000000e+00   1.000000000000e+01   1.100000000000e+01   1.200000000000e+01   1.300000000000e+01   1.400000000000e+01   1.500000000000e+01   1.600000000000e+01   1.700000000000e+01 
  1.800000000000e+01   1.900000000000e+01 
Z_COORDINATES 20 float
  0.000000000000e+00   1.000000000000e+00   2.000000000000e+00   3.000000000000e+00   4.000000000000e+00   5.000000000000e+00   6.000000000000e+00   7.000000000000e+00   8.000000000000e+00 
  9.000000000000e+00   1.000000000000e+01   1.100000000000e+01   1.200000000000e+01   1.300000000000e+01   1.400000000000e+01   1.500000000000e+01   1.600000000000e+01   1.700000000000e+01 
  1.800000000000e+01   1.900000000000e+01 
CELL_DATA 6859
POINT_DATA 8000
SCALARS pressure float
LOOKUP_TABLE default
  0.000000000000e+00   0.000000000000e+00   0.000000000000e+00   0.000000000000e+00   0.000000000000e+00   0.000000000000e+00   0.000000000000e+00   0.000000000000e+00   0.000000000000e+00 
  0.000000000000e+00   0.000000000000e+00   0.000000000000e+00   0.000000000000e+00   0.000000000000e+00   0.000000000000e+00   0.000000000000e+00   0.000000000000e+00   0.000000000000e+00 
  0.000000000000e+00   0.000000000000e+00   0.000000000000e+00   0.000000000000e+00   0.000000000000e+00   0.000000000000e+00   0.000000000000e+00   0.000000000000e+00   0.000000000000e+00 
  0.000000000000e+00   0.000000000000e+00   0.000000000000e+00   0.000000000000e+00   0.000000000000e+00   0.000000000000e+00   0.000000000000e+00   0.000000000000e+00   0.000000000000e+00 
  0.000000000000e+00   0.000000000000e+00   0.000000000000e+00   0.000000000000e+00   0.000000000000e+00   0.000000000000e+00   0.000000000000e+00   0.000000000000e+00   0.000000000000e+00 
  0.000000000000e+00   0.000000000000e+00   0.000000000000e+00   0.000000000000e+00   0.000000000000e+00   0.000000000000e+00   0.000000000000e+00   0.000000000000e+00   0.000000000000e+00 
  0.000000000000e+00   0.000000000000e+00   0.000000000000e+00   0.000000000000e+00   0.000000000000e+00   0.000000000000e+00   0.000000000000e+00   0.000000000000e+00   0.000000000000e+00 
  0.000000000000e+00   0.000000000000e+00   0.000000000000e+00   0.000000000000e+00   0.000000000000e+00   0.000000000000e+00   0.000000000000e+00   0.000000000000e+00   0.000000000000e+00 
  0.000000000000e+00   0.000000000000e+00   0.000000000000e+00   0.000000000000e+00   0.000000000000e+00   0.000000000000e+00   0.000000000000e+00   0.000000000000e+00   0.000000000000e+00 
  0.000000000000e+00   0.000000000000e+00   0.000000000000e+00   0.000000000000e+00   0.000000000000e+00   0.000000000000e+00   0.000000000000e+00   0.000000000000e+00   0.000000000000e+00 
  0.000000000000e+00   0.000000000000e+00   0.000000000000e+00   0.000000000000e+00   0.000000000000e+00   0.000000000000e+00   0.000000000000e+00   0.000000000000e+00   0.000000000000e+00 
  0.000000000000e+00   0.000000000000e+00   0.000000000000e+00   0.000000000000e+00   0.000000000000e+00   0.000000000000e+00   0.000000000000e+00   0.000000000000e+00   0.000000000000e+00 
  0.000000000000e+00   0.000000000000e+00   0.000000000000e+00   0.000000000000e+00   0.000000000000e+00   0.000000000000e+00   0.000000000000e+00   0.000000000000e+00   0.000000000000e+00 
  0.000000000000e+00   0.000000000000e+00   0.000000000000e+00   0.000000000000e+00   0.000000000000e+00   0.000000000000e+00   0.000000000000e+00   0.000000000000e+00   0.000000000000e+00 
  0.000000000000e+00   0.000000000000e+00   0.000000000000e+00   0.000000000000e+00   0.000000000000e+00   0.000000000000e+00   0.000000000000e+00   0.000000000000e+00   0.000000000000e+00 
  0.000000000000e+00   0.000000000000e+00   0.000000000000e+00   0.000000000000e+00   0.000000000000e+00   0.000000000000e+00   0.000000000000e+00   0.000000000000e+00   0.000000000000e+00 
  0.000000000000e+00   0.000000000000e+00   0.000000000000e+00   0.000000000000e+00   0.000000000000e+00   0.000000000000e+00   0.000000000000e+00   0.000000000000e+00   0.000000000000e+00 
  0.000000000000e+00   0.000000000000e+00   0.000000000000e+00   0.000000000000e+00   0.000000000000e+00   0.000000000000e+00   0.000000000000e+00   0.000000000000e+00   0.000000000000e+00 
  0.000000000000e+00   0.000000000000e+00   0.000000000000e+00   0.000000000000e+00   0.000000000000e+00   0.000000000000e+00   0.000000000000e+00   0.000000000000e+00   0.000000000000e+00 
  0.000000000000e+00   0.000000000000e+00   0.000000000000e+00   0.000000000000e+00   0.000000000000e+00   0.000000000000e+00   0.000000000000e+00   0.000000000000e+00   0.000000000000e+00 
  0.000000000000e+00   0.000000000000e+00   0.000000000000e+00   0.000000000000e+00   0.000000000000e+00   0.000000000000e+00   0.000000000000e+00   0.000000000000e+00   0.000000000000e+00 
  0.000000000000e+00   0.000000000000e+00   0.000000000000e+00   0.000000000000e+00   0.000000000000e+00   0.000000000000e+00   0.000000000000e+00   0.000000000000e+00   0.000000000000e+00 
  0.000000000000e+00   0.000000000000e+00   0.000000000000e+00   0.000000000000e+00   0.000000000000e+00   0.000000000000e+00   0.000000000000e+00   0.000000000000e+00   0.000000000000e+00 
  0.000000000000e+00   0.000000000000e+00   0.000000000000e+00   0.000000000000e+00   0.000000000000e+00   0.000000000000e+00   0.000000000000e+00   0.000000000000e+00   0.000000000000e+00 
  0.000000000000e+00   0.000000000000e+00   0.000000000000e+00   0.000000000000e+00   0.000000000000e+00   0.000000000000e+00   0.000000000000e+00   0.000000000000e+00   0.000000000000e+00 
  0.000000000000e+00   0.000000000000e+00   0.000000000000e+00   0.000000000000e+00   0.000000000000e+00   0.000000000000e+00   0.000000000000e+00   0.000000000000e+00   0.000000000000e+00 
  0.000000000000e+00   0.000000000000e+00   0.000000000000e+00   0.000000000000e+00   0.000000000000e+00   0.000000000000e+00   0.000000000000e+00   0.000000000000e+00   0.000000000000e+00 
  0.000000000000e+00   0.000000000000e+00   0.000000000000e+00   0.000000000000e+00   0.000000000000e+00   0.000000000000e+00   0.000000000000e+00   0.000000000000e+00   0.000000000000e+00 
  0.000000000000e+00   0.000000000000e+00   0.000000000000e+00   0.000000000000e+00   0.000000000000e+00   0.000000000000e+00   0.000000000000e+00   0.000000000000e+00   0.000000000000e+00 
  0.000000000000e+00   0.000000000000e+00   0.000000000000e+00   0.000000000000e+00   0.000000000000e+00   0.000000000000e+00   0.000000000000e+00   0.000000000000e+00   0.000000000000e+00 
  0.000000000000e+00   0.000000000000e+00   0.000000000000e+00   0.000000000000e+00   0.000000000000e+00   0.000000000000e+00   0.000000000000e+00   0.000000000000e+00   0.000000000000e+00 
  0.000000000000e+00   0.000000000000e+00   0.000000000000e+00   0.000000000000e+00   0.000000000000e+00   0.000000000000e+00   0.000000000000e+00   0.000000000000e+00   0.000000000000e+00 
  0.000000000000e+00   0.000000000000e+00   0.000000000000e+00   0.000000000000e+00   0.000000000000e+00   0.000000000000e+00   0.000000000000e+00   0.000000000000e+00   0.000000000000e+00 
  0.000000000000e+00   0.000000000000e+00   0.000000000000e+00   0.000000000000e+00   0.000000000000e+00   0.000000000000e+00   0.000000000000e+00   0.000000000000e+00   0.000000000000e+00 
  0.000000000000e+00   0.000000000000e+00   0.000000000000e+00   0.000000000000e+00   0.000000000000e+00   0.000000000000e+00   0.000000000000e+00   0.000000000000e+00   0.000000000000e+00 
  0.000000000000e+00   0.000000000000e+00   0.000000000000e+00   0.000000000000e+00   0.000000000000e+00   0.000000000000e+00   0.000000000000e+00   0.000000000000e+00   0.000000000000e+00 
  0.000000000000e+00   0.000000000000e+00   0.000000000000e+00   0.000000000000e+00   0.000000000000e+00   0.000000000000e+00   0.000000000000e+00   0.000000000000e+00   0.000000000000e+00 
  0.000000000000e+00   0.000000000000e+00   0.000000000000e+00   0.000000000000e+00   0.000000000000e+00   0.000000000000e+00   0.000000000000e+00   0.000000000000e+00   0.000000000000e+00 
  0.000000000000e+00   0.000000000000e+00   0.000000000000e+00   0.000000000000e+00   0.000000000000e+00   0.000000000000e+00   0.000000000000e+00   0.000000000000e+00   0.000000000000e+00 
  0.000000000000e+00   0.000000000000e+00   0.000000000000e+00   0.000000000000e+00   0.000000000000e+00   0.000000000000e+00   0.000000000000e+00   0.000000000000e+00   0.000000000000e+00 
  0.000000000000e+00   0.000000000000e+00   0.000000000000e+00   0.000000000000e+00   0.000000000000e+00   0.000000000000e+00   0.000000000000e+00   0.000000000000e+00   0.000000000000e+00 
  0.000000000000e+00   0.000000000000e+00   0.000000000000e+00   0.000000000000e+00   0.000000000000e+00   0.000000000000e+00   0.000000000000e+00   0.000000000000e+00   0.000000000000e+00 
  0.000000000000e+00   0.000000000000e+00   0.000000000000e+00   0.000000000000e+00   0.000000000000e+00   0.000000000000e+00   0.000000000000e+00   0.000000000000e+00   0.000000000000e+00 
  0.000000000000e+00   0.000000000000e+00   0.000000000000e+00   0.000000000000e+00   0.000000000000e+00   0.000000000000e+00   0.000000000000e+00   0.000000000000e+00   0.000000000000e+00 
  0.000000000000e+00   0.000000000000e+00   0.000000000000e+00   0.000000000000e+00   0.000000000000e+00   0.000000000000e+00   0.000000000000e+00   0.000000000000e+00   0.000000000000e+00 
  0.000000000000e+00   0.000000000000e+00   0.000000000000e+00   0.000000000000e+00   0.000000000000e+00   0.000000000000e+00   0.000000000000e+00   0.000000000000e+00   0.000000000000e+00 
  0.000000000000e+00   0.000000000000e+00   0.000000000000e+00   0.000000000000e+00   0.000000000000e+00   0.000000000000e+00   0.000000000000e+00   7.811138153076e+00   7.703331947327e+00 
  7.630277633667e+00   7.509852409363e+00   7.372101783752e+00   7.186818122864e+00   6.893440723419e+00   6.613865852356e+00   6.488760948181e+00   6.495604515076e+00   6.581649780273e+00 
  6.654618263245e+00   6.764745235443e+00   6.957461833954e+00   7.118595123291e+00   7.182345390320e+00   7.256624221802e+00   7.285996437073e+00   0.000000000000e+00   0.000000000000e+00 
  7.640484333038e+00   7.594870567322e+00   7.478365898132e+00   7.386477947235e+00   7.227745056152e+00   6.940574169159e+00   6.641679763794e+00   6.396648406982e+00   6.364496707916e+00 
  6.417368412018e+00   6.449926376343e+00   6.615444183350e+00   6.736099243164e+00   6.886651515961e+00   6.974495410919e+00   7.121376991272e+00   7.156006336212e+00   7.245179176331e+00 
  0.000000000000e+00   0.000000000000e+00   7.409500598907e+00   7.348713874817e+00   7.238801956177e+00   7.065546512604e+00   6.913268566132e+00   6.691248416901e+00   6.383562088013e+00 
  6.176456451416e+00   6.154692649841e+00   6.190271377563e+00   6.334327697754e+00   6.482181549072e+00   6.605738162994e+00   6.697174072266e+00   6.813570022583e+00   6.872482299805e+00 
  6.930841445923e+00   7.029375076294e+00   0.000000000000e+00   0.000000000000e+00   7.088004589081e+00   6.984242439270e+00   6.859848976135e+00   6.688752174377e+00   6.540180683136e+00 
  6.300774097443e+00   6.113344669342e+00   5.961616992950e+00   5.910412311554e+00   5.934953689575e+00   6.087639331818e+00   6.245026588440e+00   6.390013694763e+00   6.547479629517e+00 
  6.651210308075e+00   6.784900665283e+00   6.781600952148e+00   6.878429412842e+00   0.000000000000e+00   0.000000000000e+00   6.663695335388e+00   6.597211837769e+00   6.502111434937e+00 
  6.342124938965e+00   6.147811889648e+00   6.023327827454e+00   5.816975116730e+00   5.667483806610e+00   5.635957241058e+00   5.718288898468e+00   5.810188293457e+00   5.930659770966e+00 
  6.080469131470e+00   6.203386306763e+00   6.351744174957e+00   6.472445487976e+00   6.513854980469e+00   6.546163082123e+00   0.000000000000e+00   0.000000000000e+00   6.284871101379e+00 
  6.221759319305e+00   6.093963146210e+00   6.042323112488e+00   5.911464691162e+00   5.730576992035e+00   5.590200424194e+00   5.487495422363e+00   5.446022510529e+00   5.519961357117e+00 
  5.630095481873e+00   5.771286487579e+00   5.883597850800e+00   5.953120231628e+00   6.083129405975e+00   6.209800243378e+00   6.265552043915e+00   6.354339122772e+00   0.000000000000e+00 
  0.000000000000e+00   5.852098464966e+00   5.820082187653e+00   5.792323589325e+00   5.645411014557e+00   5.514168739319e+00   5.427855491638e+00   5.327944755554e+00   5.209587097168e+00 
  5.201835632324e+00   5.267922401428e+00   5.282618045807e+00   5.354091167450e+00   5.536320686340e+00   5.593696117401e+00   5.695004940033e+00   5.925762176514e+00   5.927339553833e+00 
  5.980512619019e+00   0.000000000000e+00   0.000000000000e+00   5.656089305878e+00   5.626213073730e+00   5.585991859436e+00   5.484097957611e+00   5.375618934631e+00   5.209887504578e+00 
  5.080383777618e+00   5.020195007324e+00   5.001521587372e+00   5.159038543701e+00   5.110081195831e+00   5.047290325165e+00   5.071904659271e+00   5.244249820709e+00   5.311583518982e+00 
  5.524710655212e+00   5.503876686096e+00   5.353264808655e+00   0.000000000000e+00   0.000000000000e+00   5.411967754364e+00   5.399787902832e+00   5.301242828369e+00   5.185063838959e+00 
  5.034258365631e+00   4.962827682495e+00   4.814300060272e+00   4.665216445923e+00   4.671725749969e+00   4.762989997864e+00   4.641697406769e+00   4.573841571808e+00   4.600165367126e+00 
  4.798367023468e+00   4.758759975433e+00   4.868662834167e+00   4.992387771606e+00   4.601368427277e+00   0.000000000000e+00   0.000000000000e+00   5.246463298798e+00   5.218912124634e+00 
  5.206940174103e+00   5.135704040527e+00   4.984402656555e+00   4.804872035980e+00   4.565559864044e+00   4.441300868988e+00   4.211514472961e+00   4.381750106812e+00   4.508213043213e+00 
  4.332235813141e+00   3.926109552383e+00   3.346116542816e+00   4.024857997894e+00   4.409646511078e+00   4.659664154053e+00   4.373162269592e+00   0.000000000000e+00   0.000000000000e+00 
  5.145995140076e+00   5.184268951416e+00   5.118495941162e+00   5.039726257324e+00   4.929131507874e+00   4.736965179443e+00   4.501111507416e+00   4.257716655731e+00   3.738201856613e+00 
  4.232050895691e+00   4.222359180450e+00   4.076418399811e+00   3.177595138550e+00   5.875946521759e+00   3.111912488937e+00   4.038970470428e+00   4.362729072571e+00   4.389449596405e+00 
  0.000000000000e+00   0.000000000000e+00   5.035714626312e+00   5.054631710052e+00   4.955002784729e+00   4.932966709137e+00   4.763876438141e+00   4.614874839783e+00   4.435675621033e+00 
  3.811347723007e+00   4.468652725220e+00   3.822665452957e+00   4.413638114929e+00   4.295920848846e+00   3.841762542725e+00   3.091033220291e+00   3.696621417999e+00   4.105297565460e+00 
  4.329240322113e+00   4.387047290802e+00   0.000000000000e+00   0.000000000000e+00   4.917003631592e+00   4.805054664612e+00   4.851387023926e+00   4.868418693542e+00   4.775312423706e+00 
  4.646078109741e+00   4.358269691467e+00   4.039052486420e+00   3.429969310760e+00   4.375003337860e+00   5.033190250397e+00   5.948113918304e+00   5.005628108978e+00   4.115142345428e+00 
  3.997547626495e+00   4.139751434326e+00   4.359149932861e+00   4.468026161194e+00   0.000000000000e+00   0.000000000000e+00   4.667558670044e+00   4.719957351685e+00   4.687517642975e+00 
  4.665316581726e+00   4.611369132996e+00   4.777151107788e+00   4.684831142426e+00   4.244836330414e+00   3.973286867142e+00   4.655464172363e+00   5.706280231476e+00   7.379886627197e+00 
  5.846700191498e+00   4.565570831299e+00   4.178061008453e+00   4.140773773193e+00   4.312479019165e+00   4.391744613647e+00   0.000000000000e+00   0.000000000000e+00   4.648948669434e+00 
  4.563421249390e+00   4.452115058899e+00   4.472560882568e+00   4.419568538666e+00   4.411250591278e+00   4.807088851929e+00   4.313648223877e+00   3.950896263123e+00   3.783294200897e+00 
  4.140918254852e+00   4.350028514862e+00   4.171593189240e+00   4.104135036469e+00   4.210891723633e+00   4.357401371002e+00   4.411974430084e+00   4.406774044037e+00   0.000000000000e+00 
  0.000000000000e+00   4.566660881042e+00   4.499529838562e+00   4.362536907196e+00   4.198120594025e+00   4.119451045990e+00   3.967110395432e+00   3.849846601486e+00   3.666301250458e+00 
  3.691284418106e+00   3.684668064117e+00   3.576311826706e+00   3.335060119629e+00   3.412110805511e+00   3.652712106705e+00   3.872667789459e+00   4.116221427917e+00   4.263016700745e+00 
  4.363708496094e+00   0.000000000000e+00   0.000000000000e+00   5.013436317444e+00   4.765130043030e+00   4.393576622009e+00   4.028550148010e+00   3.947724103928e+00   3.554986238480e+00 
  2.934909582138e+00   3.520738840103e+00   3.994632482529e+00   3.682400465012e+00   3.050006628036e+00   2.414415121078e+00   2.736077070236e+00   3.238906383514e+00   3.680299997330e+00 
  3.991383314133e+00   4.251389026642e+00   4.432943344116e+00   0.000000000000e+00   0.000000000000e+00   5.637455463409e+00   5.453366279602e+00   4.646946907043e+00   4.165069580078e+00 
  3.957993268967e+00   3.000210523605e+00   2.957735538483e+00   2.791231155396e+00   4.142714500427e+00   3.753995180130e+00   2.552299022675e+00   4.150736331940e+00   1.581500887871e+00 
  2.823439121246e+00   3.459918498993e+00   3.918742418289e+00   4.167840480804e+00   4.447035312653e+00   0.000000000000e+00   0.000000000000e+00   0.000000000000e+00   0.000000000000e+00 
  0.000000000000e+00   0.000000000000e+00   0.000000000000e+00   0.000000000000e+00   0.000000000000e+00   0.000000000000e+00   0.000000000000e+00   0.000000000000e+00   0.000000000000e+00 
  0.000000000000e+00   0.000000000000e+00   0.000000000000e+00   0.000000000000e+00   0.000000000000e+00   0.000000000000e+00   0.000000000000e+00   0.000000000000e+00   0.000000000000e+00 
  0.000000000000e+00   0.000000000000e+00   0.000000000000e+00   0.000000000000e+00   0.000000000000e+00   0.000000000000e+00   0.000000000000e+00   0.000000000000e+00   0.000000000000e+00 
  0.000000000000e+00   0.000000000000e+00   0.000000000000e+00   0.000000000000e+00   0.000000000000e+00   0.000000000000e+00   0.000000000000e+00   0.000000000000e+00   0.000000000000e+00 
  0.000000000000e+00   0.000000000000e+00   6.706171035767e+00   6.725839138031e+00   6.635349273682e+00   6.532249927521e+00   6.387637615204e+00   6.228601455688e+00   5.904609680176e+00 
  5.683666229248e+00   5.559409141541e+00   5.569639682770e+00   5.573788166046e+00   5.697370052338e+00   5.769542694092e+00   5.899539470673e+00   6.069504737854e+00   6.252422332764e+00 
  6.272391319275e+00   6.339540958405e+00   0.000000000000e+00   0.000000000000e+00   6.651132583618e+00   6.596853733063e+00   6.531922817230e+00   6.397764205933e+00   6.261658191681e+00 
  5.962264060974e+00   5.750917911530e+00   5.525236606598e+00   5.503156185150e+00   5.442840576172e+00   5.518668651581e+00   5.589507579803e+00   5.757676601410e+00   5.892568588257e+00 
  6.073890209198e+00   6.126954078674e+00   6.194352626801e+00   6.245783329010e+00   0.000000000000e+00   0.000000000000e+00   6.456370353699e+00   6.374398231506e+00   6.247446060181e+00 
  6.132834911346e+00   6.023735046387e+00   5.777420997620e+00   5.569892406464e+00   5.271494388580e+00   5.167474746704e+00   5.236051559448e+00   5.339328289032e+00   5.555334568024e+00 
  5.732330322266e+00   5.916895866394e+00   5.950535774231e+00   5.984091758728e+00   5.983814716339e+00   6.088789463043e+00   0.000000000000e+00   0.000000000000e+00   6.195120811462e+00 
  6.076285839081e+00   5.917545318604e+00   5.710381984711e+00   5.598274230957e+00   5.417965412140e+00   5.254690647125e+00   4.933917999268e+00   4.842982769012e+00   4.887745380402e+00 
  5.051623821259e+00   5.269635677338e+00   5.491020679474e+00   5.623186111450e+00   5.744908332825e+00   5.848632335663e+00   5.844949722290e+00   5.877814292908e+00   0.000000000000e+00 
  0.000000000000e+00   5.811839103699e+00   5.703945159912e+00   5.545011997223e+00   5.325132846832e+00   5.130552291870e+00   4.961922168732e+00   4.752219676971e+00   4.632968902588e+00 
  4.478716373444e+00   4.622922420502e+00   4.776530742645e+00   4.906270980835e+00   5.197655200958e+00   5.432782649994e+00   5.626343727112e+00   5.612053394318e+00   5.622435092926e+00 
  5.625895500183e+00   0.000000000000e+00   0.000000000000e+00   5.392478466034e+00   5.315081119537e+00   5.172390460968e+00   5.017035484314e+00   4.815040111542e+00   4.715765953064e+00 
  4.584387302399e+00   4.401076793671e+00   4.370175361633e+00   4.449299335480e+00   4.532492637634e+00   4.557758808136e+00   4.731659412384e+00   4.939930438995e+00   5.133675575256e+00 
  5.268270492554e+00   5.355656147003e+00   5.426085948944e+00   0.000000000000e+00   0.000000000000e+00   4.926207542419e+00   4.836656093597e+00   4.736277103424e+00   4.568693161011e+00 
  4.430373191833e+00   4.283882141113e+00   4.156737327576e+00   4.136590957642e+00   4.083420753479e+00   4.147611141205e+00   4.206590652466e+00   4.256920814514e+00   4.404972553253e+00 
  4.565072536469e+00   4.679440498352e+00   5.172991275787e+00   5.402745723724e+00   5.144428253174e+00   0.000000000000e+00   0.000000000000e+00   4.588257789612e+00   4.541983604431e+00 
  4.485530376434e+00   4.383048057556e+00   4.285814285278e+00   4.160131931305e+00   4.060315132141e+00   3.957315683365e+00   3.969778060913e+00   4.063123703003e+00   4.078638553619e+00 
  4.051989555359e+00   4.226545333862e+00   5.007208347321e+00   4.375024795532e+00   4.330668926239e+00   4.356809139252e+00   4.032307147980e+00   0.000000000000e+00   0.000000000000e+00 
  4.342489719391e+00   4.321732044220e+00   4.257300853729e+00   4.097190856934e+00   4.002440452576e+00   3.857609987259e+00   3.788033008575e+00   3.718618154526e+00   3.656839132309e+00 
  3.677341699600e+00   3.673463582993e+00   3.650674104691e+00   4.032172203064e+00   4.972557544708e+00   3.978027343750e+00   3.836172103882e+00   3.919011116028e+00   3.264436244965e+00 
  0.000000000000e+00   0.000000000000e+00   4.166107177734e+00   4.150579452515e+00   4.074016571045e+00   3.992758512497e+00   3.898274898529e+00   3.787985563278e+00   3.627481222153e+00 
  3.461399793625e+00   3.400512695312e+00   3.499734640121e+00   3.539383649826e+00   3.442374944687e+00   3.274422645569e+00   3.198444843292e+00   3.252321481705e+00   3.385397672653e+00 
  3.454595565796e+00   3.227454423904e+00   0.000000000000e+00   0.000000000000e+00   4.033662796021e+00   4.042829036713e+00   4.072835922241e+00   3.996739149094e+00   3.915972709656e+00 
  3.790503501892e+00   3.618807792664e+00   3.435733795166e+00   3.303588151932e+00   3.329514503479e+00   3.331259965897e+00   3.219827651978e+00   2.870684146881e+00   2.265549421310e+00 
  2.800940036774e+00   3.107680559158e+00   3.328406810760e+00   3.397150516510e+00   0.000000000000e+00   0.000000000000e+00   3.970424175262e+00   3.969536304474e+00   3.929865360260e+00 
  3.894626379013e+00   3.824002265930e+00   3.695206642151e+00   3.511777639389e+00   3.331953525543e+00   2.773428678513e+00   3.227580308914e+00   3.383761882782e+00   3.337624788284e+00 
  3.124640226364e+00   2.795877218246e+00   3.024050712585e+00   3.223159790039e+00   3.371649026871e+00   3.364705801010e+00   0.000000000000e+00   0.000000000000e+00   3.756194591522e+00 
  3.770488262177e+00   3.776542186737e+00   3.866582632065e+00   3.814154386520e+00   3.629208564758e+00   3.439995765686e+00   3.219726562500e+00   2.982725620270e+00   3.208653688431e+00 
  3.548928976059e+00   3.876684188843e+00   3.473161220551e+00   3.136751174927e+00   3.122938156128e+00   3.321739435196e+00   3.487325191498e+00   3.630767583847e+00   0.000000000000e+00 
  0.000000000000e+00   3.601143598557e+00   3.602305412292e+00   3.650301218033e+00   3.664510726929e+00   3.675809383392e+00   3.560220956802e+00   3.456121683121e+00   3.312326192856e+00 
  3.183019399643e+00   3.212751150131e+00   3.546079874039e+00   3.914546728134e+00   3.640601634979e+00   3.264676809311e+00   3.230703592300e+00   3.295524358749e+00   3.447767257690e+00 
  3.745079517365e+00   0.000000000000e+00   0.000000000000e+00   3.423308849335e+00   3.442961215973e+00   3.393424510956e+00   3.453867673874e+00   3.460798978806e+00   3.359352111816e+00 
  3.323674440384e+00   3.172227621078e+00   3.164062738419e+00   2.753351211548e+00   2.301769971848e+00   3.213795661926e+00   2.381511688232e+00   2.899770498276e+00   3.155772686005e+00 
  3.368566751480e+00   3.428481101990e+00   3.451000452042e+00   0.000000000000e+00   0.000000000000e+00   3.328666448593e+00   3.273734331131e+00   3.146464824677e+00   3.110131263733e+00 
  3.115189552307e+00   2.992972373962e+00   2.772705554962e+00   2.611191034317e+00   2.679537534714e+00   2.713989734650e+00   2.437045335770e+00   1.928307175636e+00   2.342064619064e+00 
  2.657561779022e+00   2.928579330444e+00   3.140003204346e+00   3.351271629333e+00   3.467935562134e+00   0.000000000000e+00   0.000000000000e+00   3.510516881943e+00   3.199355602264e+00 
  2.549453020096e+00   2.781317234039e+00   2.908179283142e+00   2.975320577621e+00   2.544544458389e+00   2.911718368530e+00   3.324936151505e+00   2.852391958237e+00   2.349039554596e+00 
  1.818673372269e+00   1.814977526665e+00   2.292644023895e+00   2.737813234329e+00   3.043908357620e+00   3.285561561584e+00   3.448108911514e+00   0.000000000000e+00   0.000000000000e+00 
  3.517287731171e+00   2.848663568497e+00   7.509773969650e-01   2.208345890045e+00   2.574293375015e+00   2.686253070831e+00   1.655238151550e+00   2.653604507446e+00   3.590551853180e+00 
  2.976620674133e+00   2.130424261093e+00   1.019025206566e+00   3.413033246994e+00   1.816042304039e+00   2.573483943939e+00   2.977279901505e+00   3.236282348633e+00   3.439513444901e+00 
  0.000000000000e+00   0.000000000000e+00   0.000000000000e+00   0.000000000000e+00   0.000000000000e+00   0.000000000000e+00   0.000000000000e+00   0.000000000000e+00   0.000000000000e+00 
  0.000000000000e+00   0.000000000000e+00   0.000000000000e+00   0.000000000000e+00   0.000000000000e+00   0.000000000000e+00   0.000000000000e+00   0.000000000000e+00   0.000000000000e+00 
  0.000000000000e+00   0.000000000000e+00   0.000000000000e+00   0.000000000000e+00   0.000000000000e+00   0.000000000000e+00   0.000000000000e+00   0.000000000000e+00   0.000000000000e+00 
  0.000000000000e+00   0.000000000000e+00   0.000000000000e+00   0.000000000000e+00   0.000000000000e+00   0.000000000000e+00   0.000000000000e+00   0.000000000000e+00   0.000000000000e+00 
  0.000000000000e+00   0.000000000000e+00   0.000000000000e+00   0.000000000000e+00   0.000000000000e+00   0.000000000000e+00   5.749015331268e+00   5.692350387573e+00   5.629678726196e+00 
  5.486774921417e+00   5.451241970062e+00   5.341180324554e+00   5.169382572174e+00   4.860283374786e+00   4.753604888916e+00   4.681309700012e+00   4.686885833740e+00   4.794241428375e+00 
  4.861694335938e+00   4.940329074860e+00   5.092622280121e+00   5.186162948608e+00   5.249538898468e+00   5.325030803680e+00   0.000000000000e+00   0.000000000000e+00   5.676555633545e+00 
  5.613832950592e+00   5.488477230072e+00   5.421102523804e+00   5.259230613708e+00   5.130811691284e+00   4.898150920868e+00   4.702095508575e+00   4.580222606659e+00   4.584887981415e+00 
  4.596760749817e+00   4.727237224579e+00   4.820374965668e+00   4.969676017761e+00   5.060123920441e+00   5.148591041565e+00   5.197465896606e+00   5.309359550476e+00   0.000000000000e+00 
  0.000000000000e+00   5.577942848206e+00   5.426269054413e+00   5.265307426453e+00   5.070593833923e+00   5.094408035278e+00   4.988875865936e+00   4.665609836578e+00   4.404878616333e+00 
  4.327641963959e+00   4.263476848602e+00   4.381295204163e+00   4.540894031525e+00   4.764122962952e+00   4.918392658234e+00   5.049861907959e+00   5.074018955231e+00   5.081699371338e+00 
  5.149913311005e+00   0.000000000000e+00   0.000000000000e+00   5.442259788513e+00   5.270050525665e+00   4.998843193054e+00   4.698942184448e+00   4.546600818634e+00   4.464706897736e+00 
  4.099347591400e+00   4.029473781586e+00   3.752411603928e+00   3.829989433289e+00   4.003253459930e+00   4.216474533081e+00   4.527857303619e+00   4.781398296356e+00   4.858729362488e+00 
  4.963635921478e+00   4.948072433472e+00   4.975849151611e+00   0.000000000000e+00   0.000000000000e+00   5.265450000763e+00   5.001121520996e+00   4.667857170105e+00   4.300681114197e+00 
  3.913876295090e+00   3.972402811050e+00   3.775433778763e+00   3.563100099564e+00   3.075170755386e+00   3.456448554993e+00   3.663166522980e+00   3.690308809280e+00   4.152932167053e+00 
  4.461209297180e+00   4.908087730408e+00   4.831579208374e+00   4.873960018158e+00   4.924256801605e+00   0.000000000000e+00   0.000000000000e+00   4.652654170990e+00   4.511614799500e+00 
  4.232396602631e+00   3.955076456070e+00   3.657495021820e+00   3.609784603119e+00   3.444785356522e+00   3.332100629807e+00   3.131667852402e+00   3.219946384430e+00   3.206605672836e+00 
  3.011879205704e+00   3.650924682617e+00   4.071780204773e+00   4.291369915009e+00   4.720283985138e+00   4.840460300446e+00   4.800461769104e+00   0.000000000000e+00   0.000000000000e+00 