# vtk DataFile Version 2.0
Written using VisIt writer
ASCII
DATASET RECTILINEAR_GRID
DIMENSIONS 20 20 20
X_COORDINATES 20 float
  0.000000000000e+00   1.000000000000e+00   2.000000000000e+00   3.000000000000e+00   4.000000000000e+00   5.000000000000e+00   6.000000000000e+00   7.000000000000e+00   8.000000000000e+00 
  9.000000000000e+00   1.000000000000e+01   1.100000000000e+01   1.200000000000e+01   1.300000000000e+01   1.400000000000e+01   1.500000000000e+01   1.600000000000e+01   1.700000000000e+01 
  1.800000000000e+01   1.900000000000e+01 
Y_COORDINATES 20 float
  0.000000000000e+00   1.000000000000e+00   2.000000000000e+00   3.000000000000e+00   4.000000000000e+00   5.000000000000e+00   6.000000000000e+00   7.000000000000e+00   8.000000000000e+00 
  9.000000000000e+00   1.000000000000e+01   1.100000000000e+01   1.200000000000e+01   1.300000000000e+01   1.400000000000e+01   1.500000000000e+01   1.600000000000e+01   1.700000000000e+01 
  1.800000000000e+01   1.900000000000e+01 
Z_COORDINATES 20 float
  0.000000000000e+00   1.000000000000e+00   2.000000000000e+00   3.000000000000e+00   4.000000000000e+00   5.000000000000e+00   6.000000000000e+00   7.000000000000e+00   8.000000000000e+00 
  9.000000000000e+00   1.000000000000e+01   1.100000000000e+01   1.200000000000e+01   1.300000000000e+01   1.400000000000e+01   1.500000000000e+01   1.600000000000e+01   1.700000000000e+01 
  1.800000000000e+01   1.900000000000e+01 
CELL_DATA 6859
POINT_DATA 8000
SCALARS pressure float
LOOKUP_TABLE default
  0.000000000000e+00   0.000000000000e+00   0.000000000000e+00   0.000000000000e+00   0.000000000000e+00   0.000000000000e+00   0.000000000000e+00   0.000000000000e+00   0.000000000000e+00 
  0.000000000000e+00   0.000000000000e+00   0.000000000000e+00   0.000000000000e+00   0.000000000000e+00   0.000000000000e+00   0.000000000000e+00   0.000000000000e+00   0.000000000000e+00 
  0.000000000000e+00   0.000000000000e+00   0.000000000000e+00   0.000000000000e+00   0.000000000000e+00   0.000000000000e+00   0.000000000000e+00   0.000000000000e+00   0.000000000000e+00 
  0.000000000000e+00   0.000000000000e+00   0.000000000000e+00   0.000000000000e+00   0.000000000000e+00   0.000000000000e+00   0.000000000000e+00   0.000000000000e+00   0.000000000000e+00 
  0.000000000000e+00   0.000000000000e+00   0.000000000000e+00   0.000000000000e+00   0.000000000000e+00   0.000000000000e+00   0.000000000000e+00   0.000000000000e+00   0.000000000000e+00 
  0.000000000000e+00   0.000000000000e+00   0.000000000000e+00   0.000000000000e+00   0.000000000000e+00   0.000000000000e+00   0.000000000000e+00   0.000000000000e+00   0.000000000000e+00 
  0.000000000000e+00   0.000000000000e+00   0.000000000000e+00   0.000000000000e+00   0.000000000000e+00   0.000000000000e+00   0.000000000000e+00   0.000000000000e+00   0.000000000000e+00 
  0.000000000000e+00   0.000000000000e+00   0.000000000000e+00   0.000000000000e+00   0.000000000000e+00   0.000000000000e+00   0.000000000000e+00   0.000000000000e+00   0.000000000000e+00 
  0.000000000000e+00   0.000000000000e+00   0.000000000000e+00   0.000000000000e+00   0.000000000000e+00   0.000000000000e+00   0.000000000000e+00   0.000000000000e+00   0.000000000000e+00 
  0.000000000000e+00   0.000000000000e+00   0.000000000000e+00   0.000000000000e+00   0.000000000000e+00   0.000000000000e+00   0.000000000000e+00   0.000000000000e+00   0.000000000000e+00 
  0.000000000000e+00   0.000000000000e+00   0.000000000000e+00   0.000000000000e+00   0.000000000000e+00   0.000000000000e+00   0.000000000000e+00   0.000000000000e+00   0.000000000000e+00 
  0.000000000000e+00   0.000000000000e+00   0.000000000000e+00   0.000000000000e+00   0.000000000000e+00   0.000000000000e+00   0.000000000000e+00   0.000000000000e+00   0.000000000000e+00 
  0.000000000000e+00   0.000000000000e+00   0.000000000000e+00   0.000000000000e+00   0.000000000000e+00   0.000000000000e+00   0.000000000000e+00   0.000000000000e+00   0.000000000000e+00 
  0.000000000000e+00   0.000000000000e+00   0.000000000000e+00   0.000000000000e+00   0.000000000000e+00   0.000000000000e+00   0.000000000000e+00   0.000000000000e+00   0.000000000000e+00 
  0.000000000000e+00   0.000000000000e+00   0.000000000000e+00   0.000000000000e+00   0.000000000000e+00   0.000000000000e+00   0.000000000000e+00   0.000000000000e+00   0.000000000000e+00 
  0.000000000000e+00   0.000000000000e+00   0.000000000000e+00   0.000000000000e+00   0.000000000000e+00   0.000000000000e+00   0.000000000000e+00   0.000000000000e+00   0.000000000000e+00 
  0.000000000000e+00   0.000000000000e+00   0.000000000000e+00   0.000000000000e+00   0.000000000000e+00   0.000000000000e+00   0.000000000000e+00   0.000000000000e+00   0.000000000000e+00 
  0.000000000000e+00   0.000000000000e+00   0.000000000000e+00   0.000000000000e+00   0.000000000000e+00   0.000000000000e+00   0.000000000000e+00   0.000000000000e+00   0.000000000000e+00 
  0.000000000000e+00   0.000000000000e+00   0.000000000000e+00   0.000000000000e+00   0.000000000000e+00   0.000000000000e+00   0.000000000000e+00   0.000000000000e+00   0.000000000000e+00 
  0.000000000000e+00   0.000000000000e+00   0.000000000000e+00   0.000000000000e+00   0.000000000000e+00   0.000000000000e+00   0.000000000000e+00   0.000000000000e+00   0.000000000000e+00 
  0.000000000000e+00   0.000000000000e+00   0.000000000000e+00   0.000000000000e+00   0.000000000000e+00   0.000000000000e+00   0.000000000000e+00   0.000000000000e+00   0.000000000000e+00 
  0.000000000000e+00   0.000000000000e+00   0.000000000000e+00   0.000000000000e+00   0.000000000000e+00   0.000000000000e+00   0.000000000000e+00   0.000000000000e+00   0.000000000000e+00 
  0.000000000000e+00   0.000000000000e+00   0.000000000000e+00   0.000000000000e+00   0.000000000000e+00   0.000000000000e+00   0.000000000000e+00   0.000000000000e+00   0.000000000000e+00 
  0.000000000000e+00   0.000000000000e+00   0.000000000000e+00   0.000000000000e+00   0.000000000000e+00   0.000000000000e+00   0.000000000000e+00   0.000000000000e+00   0.000000000000e+00 
  0.000000000000e+00   0.000000000000e+00   0.000000000000e+00   0.000000000000e+00   0.000000000000e+00   0.000000000000e+00   0.000000000000e+00   0.000000000000e+00   0.000000000000e+00 
  0.000000000000e+00   0.000000000000e+00   0.000000000000e+00   0.000000000000e+00   0.000000000000e+00   0.000000000000e+00   0.000000000000e+00   0.000000000000e+00   0.000000000000e+00 
  0.000000000000e+00   0.000000000000e+00   0.000000000000e+00   0.000000000000e+00   0.000000000000e+00   0.000000000000e+00   0.000000000000e+00   0.000000000000e+00   0.000000000000e+00 
  0.000000000000e+00   0.000000000000e+00   0.000000000000e+00   0.000000000000e+00   0.000000000000e+00   0.000000000000e+00   0.000000000000e+00   0.000000000000e+00   0.000000000000e+00 
  0.000000000000e+00   0.000000000000e+00   0.000000000000e+00   0.000000000000e+00   0.000000000000e+00   0.000000000000e+00   0.000000000000e+00   0.000000000000e+00   0.000000000000e+00 
  0.000000000000e+00   0.000000000000e+00   0.000000000000e+00   0.000000000000e+00   0.000000000000e+00   0.000000000000e+00   0.000000000000e+00   0.000000000000e+00   0.000000000000e+00 
  0.000000000000e+00   0.000000000000e+00   0.000000000000e+00   0.000000000000e+00   0.000000000000e+00   0.000000000000e+00   0.000000000000e+00   0.000000000000e+00   0.000000000000e+00 
  0.000000000000e+00   0.000000000000e+00   0.000000000000e+00   0.000000000000e+00   0.000000000000e+00   0.000000000000e+00   0.000000000000e+00   0.000000000000e+00   0.000000000000e+00 
  0.000000000000e+00   0.000000000000e+00   0.000000000000e+00   0.000000000000e+00   0.000000000000e+00   0.000000000000e+00   0.000000000000e+00   0.000000000000e+00   0.000000000000e+00 
  0.000000000000e+00   0.000000000000e+00   0.000000000000e+00   0.000000000000e+00   0.000000000000e+00   0.000000000000e+00   0.000000000000e+00   0.000000000000e+00   0.000000000000e+00 
  0.000000000000e+00   0.000000000000e+00   0.000000000000e+00   0.000000000000e+00   0.000000000000e+00   0.000000000000e+00   0.000000000000e+00   0.000000000000e+00   0.000000000000e+00 
  0.000000000000e+00   0.000000000000e+00   0.000000000000e+00   0.000000000000e+00   0.000000000000e+00   0.000000000000e+00   0.000000000000e+00   0.000000000000e+00   0.000000000000e+00 
  0.000000000000e+00   0.000000000000e+00   0.000000000000e+00   0.000000000000e+00   0.000000000000e+00   0.000000000000e+00   0.000000000000e+00   0.000000000000e+00   0.000000000000e+00 
  0.000000000000e+00   0.000000000000e+00   0.000000000000e+00   0.000000000000e+00   0.000000000000e+00   0.000000000000e+00   0.000000000000e+00   0.000000000000e+00   0.000000000000e+00 
  0.000000000000e+00   0.000000000000e+00   0.000000000000e+00   0.000000000000e+00   0.000000000000e+00   0.000000000000e+00   0.000000000000e+00   0.000000000000e+00   0.000000000000e+00 
  0.000000000000e+00   0.000000000000e+00   0.000000000000e+00   0.000000000000e+00   0.000000000000e+00   0.000000000000e+00   0.000000000000e+00   0.000000000000e+00   0.000000000000e+00 
  0.000000000000e+00   0.000000000000e+00   0.000000000000e+00   0.000000000000e+00   0.000000000000e+00   0.000000000000e+00   0.000000000000e+00   0.000000000000e+00   0.000000000000e+00 
  0.000000000000e+00   0.000000000000e+00   0.000000000000e+00   0.000000000000e+00   0.000000000000e+00   0.000000000000e+00   0.000000000000e+00   0.000000000000e+00   0.000000000000e+00 
  0.000000000000e+00   0.000000000000e+00   0.000000000000e+00   0.000000000000e+00   0.000000000000e+00   0.000000000000e+00   0.000000000000e+00   0.000000000000e+00   0.000000000000e+00 
  0.000000000000e+00   0.000000000000e+00   0.000000000000e+00   0.000000000000e+00   0.000000000000e+00   0.000000000000e+00   0.000000000000e+00   0.000000000000e+00   0.000000000000e+00 
  0.000000000000e+00   0.000000000000e+00   0.000000000000e+00   0.000000000000e+00   0.000000000000e+00   0.000000000000e+00   0.000000000000e+00   0.000000000000e+00   0.000000000000e+00 
  0.000000000000e+00   0.000000000000e+00   0.000000000000e+00   0.000000000000e+00   0.000000000000e+00   0.000000000000e+00   0.000000000000e+00   0.000000000000e+00   0.000000000000e+00 
  0.000000000000e+00   0.000000000000e+00   0.000000000000e+00   0.000000000000e+00   0.000000000000e+00   0.000000000000e+00   0.000000000000e+00   1.105294990540e+01   1.105294704437e+01 
  1.105294132233e+01   1.105293083191e+01   1.105291461945e+01   1.105289077759e+01   1.105286026001e+01   1.105282211304e+01   1.105277729034e+01   1.105272579193e+01   1.105266761780e+01 
  1.105260467529e+01   1.105253601074e+01   1.105246734619e+01   1.105239677429e+01   1.105233955383e+01   1.105228614807e+01   1.105226039886e+01   0.000000000000e+00   0.000000000000e+00 
  1.101007461548e+01   1.101005554199e+01   1.101001644135e+01   1.100995922089e+01   1.100988864899e+01   1.100980663300e+01   1.100971794128e+01   1.100962638855e+01   1.100953483582e+01 
  1.100944423676e+01   1.100935363770e+01   1.100926494598e+01   1.100917625427e+01   1.100909042358e+01   1.100900650024e+01   1.100893878937e+01   1.100888156891e+01   1.100884628296e+01 
  0.000000000000e+00   0.000000000000e+00   1.096419906616e+01   1.096415615082e+01   1.096407127380e+01   1.096395111084e+01   1.096380519867e+01   1.096364498138e+01   1.096347999573e+01 
  1.096331977844e+01   1.096317005157e+01   1.096303272247e+01   1.096290779114e+01   1.096279144287e+01   1.096268177032e+01   1.096257877350e+01   1.096248054504e+01   1.096239948273e+01 
  1.096233558655e+01   1.096227931976e+01   0.000000000000e+00   0.000000000000e+00   1.086755180359e+01   1.086754798889e+01   1.086754608154e+01   1.086754131317e+01   1.086753082275e+01 
  1.086751556396e+01   1.086749649048e+01   1.086747741699e+01   1.086746215820e+01   1.086744976044e+01   1.086743545532e+01   1.086741542816e+01   1.086738586426e+01   1.086734676361e+01 
  1.086729621887e+01   1.086724662781e+01   1.086720085144e+01   1.086711406708e+01   0.000000000000e+00   0.000000000000e+00   1.069971942902e+01   1.069961166382e+01   1.069940567017e+01 
  1.069912242889e+01   1.069879055023e+01   1.069844245911e+01   1.069811058044e+01   1.069781780243e+01   1.069757747650e+01   1.069739055634e+01   1.069724559784e+01   1.069713211060e+01 
  1.069703674316e+01   1.069695186615e+01   1.069686603546e+01   1.069678783417e+01   1.069672870636e+01   1.069660377502e+01   0.000000000000e+00   0.000000000000e+00   1.049067974091e+01 
  1.049035930634e+01   1.048973083496e+01   1.048887538910e+01   1.048788833618e+01   1.048687553406e+01   1.048593330383e+01   1.048512268066e+01   1.048447227478e+01   1.048397254944e+01 
  1.048359584808e+01   1.048331832886e+01   1.048311233521e+01   1.048295307159e+01   1.048281192780e+01   1.048268890381e+01   1.048260784149e+01   1.048243141174e+01   0.000000000000e+00 
  0.000000000000e+00   1.029449272156e+01   1.029407691956e+01   1.029327392578e+01   1.029219436646e+01   1.029096698761e+01   1.028973007202e+01   1.028860473633e+01   1.028769207001e+01 
  1.028702545166e+01   1.028657150269e+01   1.028627967834e+01   1.028610897064e+01   1.028602027893e+01   1.028597450256e+01   1.028592681885e+01   1.028586673737e+01   1.028582572937e+01 
  1.028557205200e+01   0.000000000000e+00   0.000000000000e+00   9.969031333923e+00   9.968559265137e+00   9.967649459839e+00   9.966456413269e+00   9.965152740479e+00   9.963896751404e+00 
  9.962795257568e+00   9.961961746216e+00   9.961387634277e+00   9.961036682129e+00   9.960870742798e+00   9.960846900940e+00   9.960918426514e+00   9.961032867432e+00   9.961124420166e+00 
  9.961165428162e+00   9.961187362671e+00   9.960869789124e+00   0.000000000000e+00   0.000000000000e+00   9.440611839294e+00   9.440492630005e+00   9.440239906311e+00   9.439946174622e+00 
  9.439734458923e+00   9.439840316772e+00   9.440426826477e+00   9.441295623779e+00   9.442206382751e+00   9.443085670471e+00   9.443938255310e+00   9.444765090942e+00   9.445554733276e+00 
  9.446279525757e+00   9.446875572205e+00   9.447309494019e+00   9.447568893433e+00   9.447254180908e+00   0.000000000000e+00   0.000000000000e+00   8.746365547180e+00   8.746945381165e+00 
  8.747984886169e+00   8.749382972717e+00   8.751059532166e+00   8.753147125244e+00   8.755746841431e+00   8.758496284485e+00   8.760969161987e+00   8.763040542603e+00   8.764792442322e+00 
  8.766366958618e+00   8.767838478088e+00   8.769198417664e+00   8.770333290100e+00   8.771174430847e+00   8.771646499634e+00   8.771416664124e+00   0.000000000000e+00   0.000000000000e+00 
  7.951071262360e+00   7.953446865082e+00   7.957529067993e+00   7.962471961975e+00   7.967411041260e+00   7.971690654755e+00   7.975039958954e+00   7.977523326874e+00   7.979267120361e+00 
  7.980459690094e+00   7.981371879578e+00   7.982333660126e+00   7.983540534973e+00   7.984940528870e+00   7.986225605011e+00   7.987197875977e+00   7.987635612488e+00   7.987579822540e+00 
  0.000000000000e+00   0.000000000000e+00   7.104803085327e+00   7.107594966888e+00   7.112293243408e+00   7.117651939392e+00   7.122665882111e+00   7.126546382904e+00   7.129170417786e+00 
  7.130685329437e+00   7.131299972534e+00   7.131215095520e+00   7.130825519562e+00   7.130878448486e+00   7.131660938263e+00   7.133057594299e+00   7.134506225586e+00   7.135683059692e+00 
  7.136030197144e+00   7.136388778687e+00   0.000000000000e+00   0.000000000000e+00   6.087491512299e+00   6.089236259460e+00   6.090108871460e+00   6.088615894318e+00   6.085080623627e+00 
  6.080289840698e+00   6.075685024261e+00   6.073041915894e+00   6.072074890137e+00   6.070862770081e+00   6.069392681122e+00   6.068501949310e+00   6.068926811218e+00   6.070284843445e+00 
  6.071717262268e+00   6.073284626007e+00   6.073713302612e+00   6.075136661530e+00   0.000000000000e+00   0.000000000000e+00   4.757311820984e+00   4.756752967834e+00   4.744336605072e+00 
  4.725259780884e+00   4.703195095062e+00   4.678889274597e+00   4.659720420837e+00   4.648076534271e+00   4.643463134766e+00   4.639481067657e+00   4.634408950806e+00   4.632755279541e+00 
  4.632711410522e+00   4.633675575256e+00   4.634995460510e+00   4.636343002319e+00   4.635035991669e+00   4.637413501740e+00   0.000000000000e+00   0.000000000000e+00   3.086424350739e+00 
  3.101096630096e+00   3.105874061584e+00   3.100989580154e+00   3.085194587708e+00   3.067865848541e+00   3.053598165512e+00   3.043400049210e+00   3.039916038513e+00   3.038735628128e+00 
  3.035067319870e+00   3.030567646027e+00   3.029252052307e+00   3.030691146851e+00   3.033908367157e+00   3.036262989044e+00   3.035773277283e+00   3.039749860764e+00   0.000000000000e+00 
  0.000000000000e+00   2.064705848694e+00   2.118147134781e+00   2.144363880157e+00   2.154401540756e+00   2.152349948883e+00   2.135465621948e+00   2.129168272018e+00   2.127308607101e+00 
  2.129908084869e+00   2.129139184952e+00   2.121655464172e+00   2.118696451187e+00   2.117596626282e+00   2.116276025772e+00   2.115683555603e+00   2.116808414459e+00   2.118392705917e+00 
  2.125108957291e+00   0.000000000000e+00   0.000000000000e+00   1.024262905121e+00   1.062687993050e+00   1.073284387589e+00   1.069031238556e+00   1.065406084061e+00   1.060872673988e+00 
  1.060356020927e+00   1.059319615364e+00   1.058491349220e+00   1.057092308998e+00   1.057340860367e+00   1.057210087776e+00   1.056920647621e+00   1.056887149811e+00   1.056965351105e+00 
  1.057405591011e+00   1.057190656662e+00   1.060052037239e+00   0.000000000000e+00   0.000000000000e+00   0.000000000000e+00   0.000000000000e+00   0.000000000000e+00   0.000000000000e+00 
  0.000000000000e+00   0.000000000000e+00   0.000000000000e+00   0.000000000000e+00   0.000000000000e+00   0.000000000000e+00   0.000000000000e+00   0.000000000000e+00   0.000000000000e+00 
  0.000000000000e+00   0.000000000000e+00   0.000000000000e+00   0.000000000000e+00   0.000000000000e+00   0.000000000000e+00   0.000000000000e+00   0.000000000000e+00   0.000000000000e+00 
  0.000000000000e+00   0.000000000000e+00   0.000000000000e+00   0.000000000000e+00   0.000000000000e+00   0.000000000000e+00   0.000000000000e+00   0.000000000000e+00   0.000000000000e+00 
  0.000000000000e+00   0.000000000000e+00   0.000000000000e+00   0.000000000000e+00   0.000000000000e+00   0.000000000000e+00   0.000000000000e+00   0.000000000000e+00   0.000000000000e+00 
  0.000000000000e+00   0.000000000000e+00   0.000000000000e+00   0.000000000000e+00   0.000000000000e+00   0.000000000000e+00   0.000000000000e+00   0.000000000000e+00   0.000000000000e+00 
  0.000000000000e+00   0.000000000000e+00   0.000000000000e+00   0.000000000000e+00   0.000000000000e+00   0.000000000000e+00   0.000000000000e+00   0.000000000000e+00   0.000000000000e+00 
  0.000000000000e+00   0.000000000000e+00   1.000770950317e+01   1.000770950317e+01   1.000770759583e+01   1.000770282745e+01   1.000769329071e+01   1.000767803192e+01   1.000765514374e+01 
  1.000762557983e+01   1.000758838654e+01   1.000754356384e+01   1.000749111176e+01   1.000743293762e+01   1.000736999512e+01   1.000730419159e+01   1.000723648071e+01   1.000717926025e+01 
  1.000712776184e+01   1.000709819794e+01   0.000000000000e+00   0.000000000000e+00   9.972119331360e+00   9.972103118896e+00   9.972071647644e+00   9.972025871277e+00   9.971967697144e+00 
  9.971899986267e+00   9.971825599670e+00   9.971747398376e+00   9.971668243408e+00   9.971588134766e+00   9.971508026123e+00   9.971426963806e+00   9.971343994141e+00   9.971262931824e+00 
  9.971182823181e+00   9.971115112305e+00   9.971058845520e+00   9.971018791199e+00   0.000000000000e+00   0.000000000000e+00   9.931984901428e+00   9.931955337524e+00   9.931895256042e+00 
  9.931808471680e+00   9.931701660156e+00   9.931580543518e+00   9.931453704834e+00   9.931327819824e+00   9.931207656860e+00   9.931094169617e+00   9.930986404419e+00   9.930882453918e+00 
  9.930780410767e+00   9.930681228638e+00   9.930583953857e+00   9.930500984192e+00   9.930435180664e+00   9.930370330811e+00   0.000000000000e+00   0.000000000000e+00   9.816548347473e+00 
  9.816538810730e+00   9.816524505615e+00   9.816500663757e+00   9.816468238831e+00   9.816428184509e+00   9.816386222839e+00   9.816346168518e+00   9.816308975220e+00   9.816275596619e+00 
  9.816241264343e+00   9.816202163696e+00   9.816153526306e+00   9.816096305847e+00   9.816029548645e+00   9.815962791443e+00   9.815909385681e+00   9.815808296204e+00   0.000000000000e+00 
  0.000000000000e+00   9.666192054749e+00   9.666108131409e+00   9.665945053101e+00   9.665718078613e+00   9.665448188782e+00   9.665162086487e+00   9.664886474609e+00   9.664643287659e+00 
  9.664440155029e+00   9.664276123047e+00   9.664145469666e+00   9.664034843445e+00   9.663934707642e+00   9.663836479187e+00   9.663734436035e+00   9.663634300232e+00   9.663563728333e+00 
  9.663411140442e+00   0.000000000000e+00   0.000000000000e+00   9.490212440491e+00   9.490011215210e+00   9.489611625671e+00   9.489057540894e+00   9.488406181335e+00   9.487727165222e+00 
  9.487081527710e+00   9.486516952515e+00   9.486062049866e+00   9.485712051392e+00   9.485448837280e+00   9.485249519348e+00   9.485090255737e+00   9.484951019287e+00   9.484814643860e+00 
  9.484683036804e+00   9.484600067139e+00   9.484366416931e+00   0.000000000000e+00   0.000000000000e+00   9.261358261108e+00   9.261122703552e+00   9.260652542114e+00   9.259999275208e+00 
  9.259239196777e+00   9.258460998535e+00   9.257737159729e+00   9.257147789001e+00   9.256726264954e+00   9.256457328796e+00   9.256302833557e+00   9.256224632263e+00   9.256187438965e+00 
  9.256161689758e+00   9.256117820740e+00   9.256050109863e+00   9.256014823914e+00   9.255680084229e+00   0.000000000000e+00   0.000000000000e+00   8.873785018921e+00   8.873729705811e+00 
  8.873625755310e+00   8.873512268066e+00   8.873435020447e+00   8.873394012451e+00   8.873350143433e+00   8.873385429382e+00   8.873511314392e+00   8.873715400696e+00   8.873982429504e+00 
  8.874286651611e+00   8.874589920044e+00   8.874859809875e+00   8.875051498413e+00   8.875144004822e+00   8.875207901001e+00   8.874768257141e+00   0.000000000000e+00   0.000000000000e+00 
  8.356888771057e+00   8.356931686401e+00   8.356950759888e+00   8.356981277466e+00   8.357081413269e+00   8.357385635376e+00   8.358042716980e+00   8.358883857727e+00   8.359726905823e+00 
  8.360523223877e+00   8.361289978027e+00   8.362040519714e+00   8.362762451172e+00   8.363416671753e+00   8.363916397095e+00   8.364216804504e+00   8.364384651184e+00   8.363867759705e+00 
  0.000000000000e+00   0.000000000000e+00   7.701622486115e+00   7.702013492584e+00   7.702580451965e+00   7.703184604645e+00   7.703781604767e+00   7.704481124878e+00   7.705508708954e+00 
  7.706750869751e+00   7.707946300507e+00   7.709042549133e+00   7.710062503815e+00   7.711065769196e+00   7.712085247040e+00   7.713066101074e+00   7.713849067688e+00   7.714344978333e+00 
  7.714550971985e+00   7.714023113251e+00   0.000000000000e+00   0.000000000000e+00   6.898313522339e+00   6.899247646332e+00   6.900608539581e+00   6.902177333832e+00   6.903660774231e+00 
  6.904772758484e+00   6.905691146851e+00   6.906536579132e+00   6.906976222992e+00   6.907172203064e+00   6.907535552979e+00   6.908273696899e+00   6.909284114838e+00   6.910469055176e+00 
  6.911546230316e+00   6.912287235260e+00   6.912455081940e+00   6.912164688110e+00   0.000000000000e+00   0.000000000000e+00   5.918612480164e+00   5.919473171234e+00   5.920454978943e+00 
  5.921477794647e+00   5.922488212585e+00   5.922894477844e+00   5.923369407654e+00   5.923921585083e+00   5.923748970032e+00   5.922952651978e+00   5.922097682953e+00   5.922490119934e+00 
  5.923386573792e+00   5.924771308899e+00   5.926433086395e+00   5.927842617035e+00   5.928087711334e+00   5.928357124329e+00   0.000000000000e+00   0.000000000000e+00   4.729492187500e+00 
  4.731245040894e+00   4.731809616089e+00   4.730247974396e+00   4.728403568268e+00   4.725301742554e+00   4.720767021179e+00   4.718135356903e+00   4.717030525208e+00   4.715370655060e+00 
  4.713229656219e+00   4.711383342743e+00   4.711498737335e+00   4.713562011719e+00   4.714944839478e+00   4.717055797577e+00   4.717686653137e+00   4.719795227051e+00   0.000000000000e+00 
  0.000000000000e+00   3.286705017090e+00   3.293248414993e+00   3.291058063507e+00   3.282697200775e+00   3.273222446442e+00   3.262113571167e+00   3.255693197250e+00   3.254453182220e+00 
  3.253292560577e+00   3.252303361893e+00   3.253055810928e+00   3.252955436707e+00   3.252445936203e+00   3.252535820007e+00   3.252065658569e+00   3.255661964417e+00   3.258097171783e+00 
  3.264001369476e+00   0.000000000000e+00   0.000000000000e+00   1.723171472549e+00   1.746644377708e+00   1.753986835480e+00   1.749222040176e+00   1.737418889999e+00   1.730188608170e+00 
  1.727247357368e+00   1.723342299461e+00   1.716533899307e+00   1.716950058937e+00   1.723831892014e+00   1.719594478607e+00   1.716907739639e+00   1.717152476311e+00   1.716385841370e+00 
  1.721140027046e+00   1.727287411690e+00   1.735791444778e+00   0.000000000000e+00   0.000000000000e+00   8.719058632851e-01   9.447600245476e-01   9.735882878304e-01   9.744846224785e-01 
  9.507132172585e-01   8.877941966057e-01   8.665626645088e-01   8.635664582253e-01   8.652361035347e-01   8.656328916550e-01   8.599162697792e-01   8.589803576469e-01   8.585035204887e-01 
  8.564833998680e-01   8.565286397934e-01   8.579837679863e-01   8.576955795288e-01   8.615350127220e-01   0.000000000000e+00   0.000000000000e+00   0.000000000000e+00   0.000000000000e+00 
  0.000000000000e+00   0.000000000000e+00   0.000000000000e+00   0.000000000000e+00   0.000000000000e+00   0.000000000000e+00   0.000000000000e+00   0.000000000000e+00   0.000000000000e+00 
  0.000000000000e+00   0.000000000000e+00   0.000000000000e+00   0.000000000000e+00   0.000000000000e+00   0.000000000000e+00   0.000000000000e+00   0.000000000000e+00   0.000000000000e+00 
  0.000000000000e+00   0.000000000000e+00   0.000000000000e+00   0.000000000000e+00   0.000000000000e+00   0.000000000000e+00   0.000000000000e+00   0.000000000000e+00   0.000000000000e+00 
  0.000000000000e+00   0.000000000000e+00   0.000000000000e+00   0.000000000000e+00   0.000000000000e+00   0.000000000000e+00   0.000000000000e+00   0.000000000000e+00   0.000000000000e+00 
  0.000000000000e+00   0.000000000000e+00   0.000000000000e+00   0.000000000000e+00   0.000000000000e+00   0.000000000000e+00   0.000000000000e+00   0.000000000000e+00   0.000000000000e+00 
  0.000000000000e+00   0.000000000000e+00   0.000000000000e+00   0.000000000000e+00   0.000000000000e+00   0.000000000000e+00   0.000000000000e+00   0.000000000000e+00   0.000000000000e+00 
  0.000000000000e+00   0.000000000000e+00   0.000000000000e+00   0.000000000000e+00   0.000000000000e+00   0.000000000000e+00   0.000000000000e+00   0.000000000000e+00   0.000000000000e+00 
  0.000000000000e+00   0.000000000000e+00   0.000000000000e+00   0.000000000000e+00   0.000000000000e+00   0.000000000000e+00   0.000000000000e+00   0.000000000000e+00   0.000000000000e+00 
  0.000000000000e+00   0.000000000000e+00   0.000000000000e+00   0.000000000000e+00   0.000000000000e+00   0.000000000000e+00   8.925487518311e+00   8.925485610962e+00   8.925481796265e+00 
  8.925474166870e+00   8.925459861755e+00   8.925436973572e+00   8.925405502319e+00   8.925364494324e+00   8.925314903259e+00   8.925256729126e+00   8.925190925598e+00   8.925119400024e+00 
  8.925043106079e+00   8.924965858459e+00   8.924888610840e+00   8.924823760986e+00   8.924768447876e+00   8.924730300903e+00   0.000000000000e+00   0.000000000000e+00   8.898406028748e+00 
  8.898398399353e+00   8.898382186890e+00   8.898356437683e+00   8.898320198059e+00   8.898275375366e+00   8.898221969604e+00   8.898160934448e+00   8.898093223572e+00   8.898020744324e+00 
  8.897942543030e+00   8.897861480713e+00   8.897775650024e+00   8.897689819336e+00   8.897603988647e+00   8.897529602051e+00   8.897470474243e+00   8.897418022156e+00   0.000000000000e+00 
  0.000000000000e+00   8.846840858459e+00   8.846837043762e+00   8.846828460693e+00   8.846811294556e+00   8.846782684326e+00   8.846742630005e+00   8.846693038940e+00   8.846635818481e+00 
  8.846572875977e+00   8.846506118774e+00   8.846433639526e+00   8.846355438232e+00   8.846270561218e+00   8.846179962158e+00   8.846085548401e+00   8.845999717712e+00   8.845934867859e+00 
  8.845849037170e+00   0.000000000000e+00   0.000000000000e+00   8.738132476807e+00   8.738116264343e+00   8.738080978394e+00   8.738028526306e+00   8.737957954407e+00   8.737874031067e+00 
  8.737782478333e+00   8.737689971924e+00   8.737599372864e+00   8.737511634827e+00   8.737426757812e+00   8.737339973450e+00   8.737246513367e+00   8.737146377563e+00   8.737038612366e+00 
  8.736933708191e+00   8.736861228943e+00   8.736730575562e+00   0.000000000000e+00   0.000000000000e+00   8.606394767761e+00   8.606348037720e+00   8.606252670288e+00   8.606112480164e+00 
  8.605937957764e+00   8.605744361877e+00   8.605546951294e+00   8.605360031128e+00   8.605194091797e+00   8.605049133301e+00   8.604922294617e+00   8.604803085327e+00   8.604681968689e+00 
  8.604552268982e+00   8.604413986206e+00   8.604273796082e+00   8.604185104370e+00   8.603970527649e+00   0.000000000000e+00   0.000000000000e+00   8.425542831421e+00   8.425455093384e+00 
  8.425269126892e+00   8.424994468689e+00   8.424652099609e+00   8.424280166626e+00   8.423913955688e+00   8.423583984375e+00   8.423307418823e+00   8.423085212708e+00   8.422905921936e+00 
  8.422752380371e+00   8.422601699829e+00   8.422439575195e+00   8.422263145447e+00   8.422074317932e+00   8.421967506409e+00   8.421626091003e+00   0.000000000000e+00   0.000000000000e+00 