# vtk DataFile Version 2.0
Written using VisIt writer
ASCII
DATASET RECTILINEAR_GRID
DIMENSIONS 10 10 10
X_COORDINATES 10 float
  0.000000000000e+00   5.000000000000e-01   1.000000000000e+00   1.500000000000e+00   2.000000000000e+00   2.500000000000e+00   3.000000000000e+00   3.500000000000e+00   4.000000000000e+00 
  4.500000000000e+00 
Y_COORDINATES 10 float
  0.000000000000e+00   5.000000000000e-01   1.000000000000e+00   1.500000000000e+00   2.000000000000e+00   2.500000000000e+00   3.000000000000e+00   3.500000000000e+00   4.000000000000e+00 
  4.500000000000e+00 
Z_COORDINATES 10 float
  0.000000000000e+00   5.000000000000e-01   1.000000000000e+00   1.500000000000e+00   2.000000000000e+00   2.500000000000e+00   3.000000000000e+00   3.500000000000e+00   4.000000000000e+00 
  4.500000000000e+00 
CELL_DATA 729
POINT_DATA 1000
VECTORS velocity float
  0.000000000000e+00  -1.234412267804e-01  -2.331307083368e-01   3.251200000000e+04   0.000000000000e+00   0.000000000000e+00   0.000000000000e+00   0.000000000000e+00   0.000000000000e+00 
  5.908809229732e-02  -8.122382313013e-02  -1.531506925821e-01   0.000000000000e+00   0.000000000000e+00   0.000000000000e+00   0.000000000000e+00   1.431655808000e+09   1.070945600000e+09 
 -1.128674894571e-01  -8.063789457083e-02  -1.630038022995e-01   1.071994176000e+09   0.000000000000e+00   0.000000000000e+00   0.000000000000e+00   0.000000000000e+00   0.000000000000e+00 
  2.165571413934e-02  -1.927060037851e-01  -1.846210062504e-01   0.000000000000e+00  -1.234412267804e-01  -2.331307083368e-01   1.070945600000e+09   0.000000000000e+00   0.000000000000e+00 
  1.777404570021e-03  -1.266010105610e-01  -2.056006193161e-01   5.908809229732e-02  -8.122382313013e-02  -1.531506925821e-01   1.431655808000e+09   1.070945600000e+09   0.000000000000e+00 
 -7.725703716278e-02  -5.991585552692e-02  -1.365389525890e-01  -1.128674894571e-01  -8.063789457083e-02  -1.630038022995e-01   0.000000000000e+00   0.000000000000e+00   1.071644672000e+09 
  2.165571413934e-02  -1.927060037851e-01  -1.846210062504e-01   2.165571413934e-02  -1.927060037851e-01  -1.846210062504e-01   0.000000000000e+00  -3.354971110821e-02  -1.968622058630e-01 
  0.000000000000e+00  -3.354971110821e-02  -1.968622058630e-01  -1.677082292736e-02  -5.378639698029e-02  -2.075885981321e-01   6.397055089474e-02  -2.099099755287e-01  -1.940845400095e-01 
 -2.694061771035e-02  -1.799411475658e-01  -1.859207153320e-01   2.344125509262e-02  -7.706299424171e-02  -1.409710049629e-01   4.517944157124e-02  -2.412538602948e-02  -1.409233212471e-01 
 -8.929558098316e-03  -3.669157251716e-02  -1.407261639833e-01  -2.840825170279e-02  -8.594118990004e-03  -1.501223742962e-01  -2.840825170279e-02  -8.594118990004e-03  -1.501223742962e-01 
  0.000000000000e+00   4.181705787778e-02  -1.871561110020e-01   0.000000000000e+00   4.181705787778e-02  -1.871561110020e-01   1.122910901904e-02   3.110519051552e-02  -1.794705390930e-01 
  2.081043459475e-02   3.347836807370e-02  -1.547873765230e-01   6.666412949562e-02  -5.741328373551e-02  -1.524351984262e-01  -2.311495877802e-02  -9.810938686132e-02  -1.564767211676e-01 
 -9.959387034178e-02  -6.622574478388e-02  -1.885377466679e-01   9.707438759506e-03   2.093342132866e-03  -1.420676559210e-01  -1.770042441785e-02  -5.468279495835e-02  -1.519242376089e-01 
 -1.770042441785e-02  -5.468279495835e-02  -1.519242376089e-01   0.000000000000e+00  -3.259642422199e-02  -2.314875274897e-01   0.000000000000e+00  -3.259642422199e-02  -2.314875274897e-01 
 -3.035455010831e-02  -4.997162148356e-02  -2.491623312235e-01   1.416431218386e-01  -6.396652758121e-02  -1.678543686867e-01   1.123553588986e-01  -6.982976943254e-02  -1.433969289064e-01 
 -4.265761002898e-02  -2.068314701319e-02  -1.431182920933e-01  -6.431786715984e-02   9.017711505294e-03  -1.709873378277e-01  -2.995593659580e-02   2.083402685821e-02  -1.624582111835e-01 
 -1.323957890272e-01  -7.456317543983e-02  -2.074426859617e-01  -1.323957890272e-01  -7.456317543983e-02  -2.074426859617e-01   0.000000000000e+00   3.565418766811e-03  -1.949162334204e-01 
  0.000000000000e+00   3.565418766811e-03  -1.949162334204e-01   9.315697243437e-04  -4.017831757665e-02  -1.967684477568e-01   8.653229475021e-02  -7.142371684313e-02  -1.959568262100e-01 
  2.585870213807e-02  -3.011672385037e-02  -1.908766031265e-01   2.009048685431e-02  -6.249445723370e-04  -1.482337117195e-01   6.739290058613e-02  -8.324941992760e-02  -1.573372781277e-01 
 -2.273029088974e-02  -4.394855350256e-02  -1.454590111971e-01  -1.224827244878e-01  -4.112127795815e-02  -1.639980226755e-01  -1.224827244878e-01  -4.112127795815e-02  -1.639980226755e-01 
  0.000000000000e+00   4.778030887246e-02  -1.937008649111e-01   0.000000000000e+00   4.778030887246e-02  -1.937008649111e-01  -3.021526336670e-02  -4.367004334927e-02  -1.716641187668e-01 
 -2.155891247094e-02   4.584147781134e-02  -1.575358062983e-01   6.270756572485e-02   1.525945775211e-02  -1.624626219273e-01   3.453399986029e-02   2.882132679224e-02  -1.747795641422e-01 
  1.580893062055e-02  -2.453772164881e-02  -1.940422952175e-01   5.656893178821e-02   2.640182152390e-03  -1.432774513960e-01   3.821906074882e-02  -7.261162996292e-02  -1.471164077520e-01 
  3.821906074882e-02  -7.261162996292e-02  -1.471164077520e-01   0.000000000000e+00   9.066826105118e-02  -2.600752115250e-01   0.000000000000e+00   9.066826105118e-02  -2.600752115250e-01 
 -2.422482706606e-02  -1.061297673732e-02  -2.222570925951e-01   8.453031629324e-02   3.466788679361e-02  -1.524969488382e-01   9.778545051813e-02  -4.562371224165e-02  -1.443746536970e-01 
 -2.814520336688e-02   1.808011159301e-02  -1.448451131582e-01   4.666364565492e-02   7.370445132256e-02  -1.491476148367e-01   4.987922683358e-02   4.375123977661e-02  -1.607923656702e-01 
  4.459857195616e-02  -1.060344725847e-01  -2.045257985592e-01   4.459857195616e-02  -1.060344725847e-01  -2.045257985592e-01   0.000000000000e+00   0.000000000000e+00  -2.079197913408e-01 
  0.000000000000e+00   0.000000000000e+00  -2.079197913408e-01   5.041989963502e-03   0.000000000000e+00  -1.817724704742e-01  -1.296000033617e-01   0.000000000000e+00  -1.765788346529e-01 
  1.000365614891e-01   0.000000000000e+00  -2.061053216457e-01   9.684474766254e-02   0.000000000000e+00  -1.448618620634e-01   1.662026345730e-01   0.000000000000e+00  -1.253180503845e-01 
  1.049445122480e-01   0.000000000000e+00  -1.319525539875e-01   1.204174384475e-01   0.000000000000e+00  -1.354903727770e-01   1.204174384475e-01   0.000000000000e+00  -1.354903727770e-01 
  0.000000000000e+00   0.000000000000e+00  -2.079197913408e-01   0.000000000000e+00   0.000000000000e+00  -2.079197913408e-01   5.041989963502e-03   0.000000000000e+00  -1.817724704742e-01 
 -1.296000033617e-01   0.000000000000e+00  -1.765788346529e-01   1.000365614891e-01   0.000000000000e+00  -2.061053216457e-01   9.684474766254e-02   0.000000000000e+00  -1.448618620634e-01 
  1.662026345730e-01   0.000000000000e+00  -1.253180503845e-01   1.049445122480e-01   0.000000000000e+00  -1.319525539875e-01   1.204174384475e-01   0.000000000000e+00  -1.354903727770e-01 
  1.204174384475e-01   0.000000000000e+00  -1.354903727770e-01   0.000000000000e+00  -1.234412267804e-01  -2.331307083368e-01   0.000000000000e+00  -1.234412267804e-01  -2.331307083368e-01 
  1.777404570021e-03  -1.266010105610e-01  -2.056006193161e-01   5.908809229732e-02  -8.122382313013e-02  -1.531506925821e-01   3.319994313642e-03  -5.019922181964e-02  -1.396584361792e-01 
 -7.725703716278e-02  -5.991585552692e-02  -1.365389525890e-01  -1.128674894571e-01  -8.063789457083e-02  -1.630038022995e-01  -7.200295478106e-02  -8.255381137133e-02  -1.679914593697e-01 
  2.165571413934e-02  -1.927060037851e-01  -1.846210062504e-01   2.165571413934e-02  -1.927060037851e-01  -1.846210062504e-01   0.000000000000e+00  -1.234412267804e-01  -2.331307083368e-01 
  0.000000000000e+00  -1.234412267804e-01  -2.331307083368e-01   1.777404570021e-03  -1.266010105610e-01  -2.056006193161e-01   5.908809229732e-02  -8.122382313013e-02  -1.531506925821e-01 
  3.319994313642e-03  -5.019922181964e-02  -1.396584361792e-01  -7.725703716278e-02  -5.991585552692e-02  -1.365389525890e-01  -1.128674894571e-01  -8.063789457083e-02  -1.630038022995e-01 
 -7.200295478106e-02  -8.255381137133e-02  -1.679914593697e-01   2.165571413934e-02  -1.927060037851e-01  -1.846210062504e-01   2.165571413934e-02  -1.927060037851e-01  -1.846210062504e-01 
  0.000000000000e+00  -3.354971110821e-02  -1.968622058630e-01   0.000000000000e+00  -3.354971110821e-02  -1.968622058630e-01  -1.677082292736e-02  -5.378639698029e-02  -2.075885981321e-01 
  6.397055089474e-02  -2.099099755287e-01  -1.940845400095e-01  -2.694061771035e-02  -1.799411475658e-01  -1.859207153320e-01   2.344125509262e-02  -7.706299424171e-02  -1.409710049629e-01 
  4.517944157124e-02  -2.412538602948e-02  -1.409233212471e-01  -8.929558098316e-03  -3.669157251716e-02  -1.407261639833e-01  -2.840825170279e-02  -8.594118990004e-03  -1.501223742962e-01 
 -2.840825170279e-02  -8.594118990004e-03  -1.501223742962e-01   0.000000000000e+00   4.181705787778e-02  -1.871561110020e-01   0.000000000000e+00   4.181705787778e-02  -1.871561110020e-01 
  1.122910901904e-02   3.110519051552e-02  -1.794705390930e-01   2.081043459475e-02   3.347836807370e-02  -1.547873765230e-01   6.666412949562e-02  -5.741328373551e-02  -1.524351984262e-01 
 -2.311495877802e-02  -9.810938686132e-02  -1.564767211676e-01  -9.959387034178e-02  -6.622574478388e-02  -1.885377466679e-01   9.707438759506e-03   2.093342132866e-03  -1.420676559210e-01 
 -1.770042441785e-02  -5.468279495835e-02  -1.519242376089e-01  -1.770042441785e-02  -5.468279495835e-02  -1.519242376089e-01   0.000000000000e+00  -3.259642422199e-02  -2.314875274897e-01 
  0.000000000000e+00  -3.259642422199e-02  -2.314875274897e-01  -3.035455010831e-02  -4.997162148356e-02  -2.491623312235e-01   1.416431218386e-01  -6.396652758121e-02  -1.678543686867e-01 
  1.123553588986e-01  -6.982976943254e-02  -1.433969289064e-01  -4.265761002898e-02  -2.068314701319e-02  -1.431182920933e-01  -6.431786715984e-02   9.017711505294e-03  -1.709873378277e-01 
 -2.995593659580e-02   2.083402685821e-02  -1.624582111835e-01  -1.323957890272e-01  -7.456317543983e-02  -2.074426859617e-01  -1.323957890272e-01  -7.456317543983e-02  -2.074426859617e-01 
  0.000000000000e+00   3.565418766811e-03  -1.949162334204e-01   0.000000000000e+00   3.565418766811e-03  -1.949162334204e-01   9.315697243437e-04  -4.017831757665e-02  -1.967684477568e-01 
  8.653229475021e-02  -7.142371684313e-02  -1.959568262100e-01   2.585870213807e-02  -3.011672385037e-02  -1.908766031265e-01   2.009048685431e-02  -6.249445723370e-04  -1.482337117195e-01 
  6.739290058613e-02  -8.324941992760e-02  -1.573372781277e-01  -2.273029088974e-02  -4.394855350256e-02  -1.454590111971e-01  -1.224827244878e-01  -4.112127795815e-02  -1.639980226755e-01 
 -1.224827244878e-01  -4.112127795815e-02  -1.639980226755e-01   0.000000000000e+00   4.778030887246e-02  -1.937008649111e-01   0.000000000000e+00   4.778030887246e-02  -1.937008649111e-01 
 -3.021526336670e-02  -4.367004334927e-02  -1.716641187668e-01  -2.155891247094e-02   4.584147781134e-02  -1.575358062983e-01   6.270756572485e-02   1.525945775211e-02  -1.624626219273e-01 
  3.453399986029e-02   2.882132679224e-02  -1.747795641422e-01   1.580893062055e-02  -2.453772164881e-02  -1.940422952175e-01   5.656893178821e-02   2.640182152390e-03  -1.432774513960e-01 
  3.821906074882e-02  -7.261162996292e-02  -1.471164077520e-01   3.821906074882e-02  -7.261162996292e-02  -1.471164077520e-01   0.000000000000e+00   9.066826105118e-02  -2.600752115250e-01 
  0.000000000000e+00   9.066826105118e-02  -2.600752115250e-01  -2.422482706606e-02  -1.061297673732e-02  -2.222570925951e-01   8.453031629324e-02   3.466788679361e-02  -1.524969488382e-01 
  9.778545051813e-02  -4.562371224165e-02  -1.443746536970e-01  -2.814520336688e-02   1.808011159301e-02  -1.448451131582e-01   4.666364565492e-02   7.370445132256e-02  -1.491476148367e-01 
  4.987922683358e-02   4.375123977661e-02  -1.607923656702e-01   4.459857195616e-02  -1.060344725847e-01  -2.045257985592e-01   4.459857195616e-02  -1.060344725847e-01  -2.045257985592e-01 
  0.000000000000e+00   0.000000000000e+00  -2.079197913408e-01   0.000000000000e+00   0.000000000000e+00  -2.079197913408e-01   5.041989963502e-03   0.000000000000e+00  -1.817724704742e-01 
 -1.296000033617e-01   0.000000000000e+00  -1.765788346529e-01   1.000365614891e-01   0.000000000000e+00  -2.061053216457e-01   9.684474766254e-02   0.000000000000e+00  -1.448618620634e-01 
  1.662026345730e-01   0.000000000000e+00  -1.253180503845e-01   1.049445122480e-01   0.000000000000e+00  -1.319525539875e-01   1.204174384475e-01   0.000000000000e+00  -1.354903727770e-01 
  1.204174384475e-01   0.000000000000e+00  -1.354903727770e-01   0.000000000000e+00   0.000000000000e+00  -2.079197913408e-01   0.000000000000e+00   0.000000000000e+00  -2.079197913408e-01 
  5.041989963502e-03   0.000000000000e+00  -1.817724704742e-01  -1.296000033617e-01   0.000000000000e+00  -1.765788346529e-01   1.000365614891e-01   0.000000000000e+00  -2.061053216457e-01 
  9.684474766254e-02   0.000000000000e+00  -1.448618620634e-01   1.662026345730e-01   0.000000000000e+00  -1.253180503845e-01   1.049445122480e-01   0.000000000000e+00  -1.319525539875e-01 
  1.204174384475e-01   0.000000000000e+00  -1.354903727770e-01   1.204174384475e-01   0.000000000000e+00  -1.354903727770e-01   0.000000000000e+00  -1.161064803600e-01  -7.339550256729e-01 
  0.000000000000e+00  -1.161064803600e-01  -7.339550256729e-01   3.832970559597e-01  -2.143232338130e-02  -7.147220969200e-01   6.057445406914e-01  -3.045226261020e-02  -5.832849144936e-01 
  2.960337102413e-01  -2.129613794386e-02  -4.223380088806e-01   0.000000000000e+00   2.589136958122e-01  -6.346105039120e-02  -7.503455877304e-02   6.143278479576e-01  -5.862964391708e-01 
 -5.181842297316e-02   2.624618411064e-01  -5.697007179260e-01   6.206759810448e-01   8.490206003189e-01  -1.537899672985e-02   6.206759810448e-01   8.490206003189e-01  -1.537899672985e-02 
  0.000000000000e+00  -1.161064803600e-01  -7.339550256729e-01   0.000000000000e+00  -1.161064803600e-01  -7.339550256729e-01   3.832970559597e-01  -2.143232338130e-02  -7.147220969200e-01 
  6.057445406914e-01  -3.045226261020e-02  -5.832849144936e-01   2.960337102413e-01  -2.129613794386e-02  -4.223380088806e-01   0.000000000000e+00   2.589136958122e-01  -6.346105039120e-02 
 -7.503455877304e-02   6.143278479576e-01  -5.862964391708e-01  -5.181842297316e-02   2.624618411064e-01  -5.697007179260e-01   6.206759810448e-01   8.490206003189e-01  -1.537899672985e-02 
  6.206759810448e-01   8.490206003189e-01  -1.537899672985e-02   0.000000000000e+00  -2.101984433830e-02  -6.659921407700e-01   0.000000000000e+00  -2.101984433830e-02  -6.659921407700e-01 
  2.886634469032e-01  -4.756310209632e-02  -6.995757818222e-01   4.326428472996e-01  -1.407995522022e-01  -9.595795869827e-01   5.845017433167e-01  -1.511474549770e-01  -3.083066046238e-01 
  1.480735391378e-01   1.945047974586e-01  -5.902899056673e-02   7.575949188322e-03   6.375439763069e-01  -5.321770906448e-01  -1.110590919852e-01   2.145254015923e-01  -4.913442134857e-01 
 -4.677481651306e-01   6.896845698357e-01  -3.047102987766e-01  -4.677481651306e-01   6.896845698357e-01  -3.047102987766e-01   0.000000000000e+00   1.310732066631e-01  -8.682214021683e-01 
  0.000000000000e+00   1.310732066631e-01  -8.682214021683e-01   3.041678071022e-01  -9.802478551865e-02  -7.836059927940e-01   5.109803080559e-01  -7.361258566380e-02  -7.571207880974e-01 
  5.333249568939e-01  -6.551289558411e-02  -5.546877384186e-01   9.318341314793e-02  -7.825604081154e-02  -6.539508700371e-01  -8.282168507576e-01   0.000000000000e+00  -4.090388119221e-01 
 -7.246165871620e-01   1.330076903105e-01   6.183815002441e-02  -1.149840831757e+00   2.882600426674e-01  -2.579207122326e-01  -1.149840831757e+00   2.882600426674e-01  -2.579207122326e-01 
  0.000000000000e+00   2.056753076613e-02  -9.219810962677e-01   0.000000000000e+00   2.056753076613e-02  -9.219810962677e-01   4.522318542004e-01  -5.892787501216e-02  -9.929354786873e-01 
  5.873921513557e-01  -5.065474659204e-02  -6.294323205948e-01   5.112260580063e-01  -6.015998125076e-02  -4.891311228275e-01   3.514549136162e-02  -1.733042858541e-02  -6.474360823631e-01 
 -2.152833461761e+00  -3.491817787290e-02  -8.328164368868e-02  -1.376304626465e+00   2.411125451326e-01   1.935939490795e-01  -8.027197122574e-01   3.842148482800e-01  -1.797358132899e-02 
 -8.027197122574e-01   3.842148482800e-01  -1.797358132899e-02   0.000000000000e+00  -4.992514103651e-02  -1.015665650368e+00   0.000000000000e+00  -4.992514103651e-02  -1.015665650368e+00 
  3.417465388775e-01  -2.590711787343e-02  -7.305003404617e-01   4.085083007812e-01  -2.392517961562e-02  -6.992076039314e-01   7.019630074501e-01   5.242688581347e-02  -6.632134914398e-01 
  8.591884374619e-01   2.874663472176e-02  -8.006853461266e-01  -1.523089408875e-01   7.103386521339e-02  -1.081740707159e-01   8.041700124741e-01   2.891775369644e-01  -6.647434085608e-02 
  5.675208196044e-02   3.497473895550e-01   1.687951833010e-01   5.675208196044e-02   3.497473895550e-01   1.687951833010e-01   0.000000000000e+00   1.065018475056e-01  -1.005114078522e+00 
  0.000000000000e+00   1.065018475056e-01  -1.005114078522e+00   2.508442997932e-01   9.393751621246e-02  -5.068464875221e-01   2.876284718513e-01   4.186748340726e-02  -1.069025993347e+00 
  8.627438545227e-01  -1.620064228773e-01  -7.759825587273e-01   9.287143945694e-01  -3.771408274770e-02  -7.570846080780e-01  -6.545946002007e-02  -4.252209886909e-02  -1.144406348467e-01 
  3.243826329708e-01  -2.478849589825e-01  -5.843237042427e-01   1.393533498049e-02   2.889759242535e-01  -3.342610001564e-01   1.393533498049e-02   2.889759242535e-01  -3.342610001564e-01 
  0.000000000000e+00   5.199469253421e-02  -1.144982099533e+00   0.000000000000e+00   5.199469253421e-02  -1.144982099533e+00   2.936463654041e-01   8.104429394007e-02  -1.491955995560e+00 
  3.612679541111e-01   3.021619915962e-01  -8.470014929771e-01   8.454871177673e-01  -1.227094009519e-01  -9.082419872284e-01   7.732738256454e-01   1.447044759989e-01  -1.077633857727e+00 
  5.789470672607e-01   2.248927652836e-01  -3.656590282917e-01  -1.237587705255e-01   5.766343325377e-02  -5.041987299919e-01  -1.735070347786e-01   2.200212776661e-01  -1.816685050726e-01 
 -1.735070347786e-01   2.200212776661e-01  -1.816685050726e-01   0.000000000000e+00   0.000000000000e+00  -1.064585447311e+00   0.000000000000e+00   0.000000000000e+00  -1.064585447311e+00 
  2.180720418692e-01   0.000000000000e+00  -1.167237997055e+00   3.099912703037e-01   0.000000000000e+00  -6.143416762352e-01   9.525208473206e-01   0.000000000000e+00  -8.680480122566e-01 
  1.576732873917e+00   0.000000000000e+00  -1.056199550629e+00   1.787144899368e+00   3.365753400431e-06  -1.438597440720e+00  -1.007484421134e-01   1.177416741848e-02  -6.804744154215e-02 
 -4.798001348972e-01   0.000000000000e+00  -6.450963020325e-02  -4.798001348972e-01   0.000000000000e+00  -6.450963020325e-02   0.000000000000e+00   0.000000000000e+00  -1.064585447311e+00 
  0.000000000000e+00   0.000000000000e+00  -1.064585447311e+00   2.180720418692e-01   0.000000000000e+00  -1.167237997055e+00   3.099912703037e-01   0.000000000000e+00  -6.143416762352e-01 
  9.525208473206e-01   0.000000000000e+00  -8.680480122566e-01   1.576732873917e+00   0.000000000000e+00  -1.056199550629e+00   1.787144899368e+00   3.365753400431e-06  -1.438597440720e+00 
 -1.007484421134e-01   1.177416741848e-02  -6.804744154215e-02  -4.798001348972e-01   0.000000000000e+00  -6.450963020325e-02  -4.798001348972e-01   0.000000000000e+00  -6.450963020325e-02 
  0.000000000000e+00   8.360913023353e-03  -3.928730189800e-01   0.000000000000e+00   8.360913023353e-03  -3.928730189800e-01   2.630115449429e-01   7.980708032846e-02  -3.793107569218e-01 
  3.320706784725e-01   2.246857620776e-02  -4.944814741611e-01   3.274261951447e-01  -1.802865602076e-02  -3.893429934978e-01   0.000000000000e+00   3.860274851322e-01  -1.000000014901e-01 
 -6.342649459839e-02   6.327371597290e-01  -6.260840892792e-01  -6.342649459839e-02   8.566930890083e-01  -6.376922130585e-01   1.125393390656e+00   1.182470321655e+00  -1.928750425577e-01 
  1.125393390656e+00   1.182470321655e+00  -1.928750425577e-01   0.000000000000e+00   8.360913023353e-03  -3.928730189800e-01   0.000000000000e+00   8.360913023353e-03  -3.928730189800e-01 
  2.630115449429e-01   7.980708032846e-02  -3.793107569218e-01   3.320706784725e-01   2.246857620776e-02  -4.944814741611e-01   3.274261951447e-01  -1.802865602076e-02  -3.893429934978e-01 
  0.000000000000e+00   3.860274851322e-01  -1.000000014901e-01  -6.342649459839e-02   6.327371597290e-01  -6.260840892792e-01  -6.342649459839e-02   8.566930890083e-01  -6.376922130585e-01 
  1.125393390656e+00   1.182470321655e+00  -1.928750425577e-01   1.125393390656e+00   1.182470321655e+00  -1.928750425577e-01   0.000000000000e+00   4.210692644119e-02  -4.618434011936e-01 
  0.000000000000e+00   4.210692644119e-02  -4.618434011936e-01   1.801895052195e-01   2.770645357668e-02  -3.852480351925e-01   1.962575018406e-01  -3.767261654139e-02  -6.364992260933e-01 
  3.912616968155e-01  -8.845826238394e-02  -4.723005592823e-01   2.309368103743e-01   3.473197221756e-01  -1.190920546651e-01  -4.715304672718e-01   6.373122930527e-01  -6.376922130585e-01 
 -4.748871028423e-01   7.535079717636e-01  -2.872466146946e-01  -5.204735994339e-01   9.843472242355e-01  -2.706316113472e-01  -5.204735994339e-01   9.843472242355e-01  -2.706316113472e-01 
  0.000000000000e+00   1.927291899920e-01  -4.432047605515e-01   0.000000000000e+00   1.927291899920e-01  -4.432047605515e-01   1.771347075701e-01   6.667906884104e-03  -3.740517199039e-01 
  2.624488472939e-01  -3.347253426909e-02  -5.219653844833e-01   4.278249442577e-01  -4.623907059431e-02  -4.640223085880e-01   2.365611344576e-01  -3.382153064013e-02   4.631875753403e-01 
 -1.428475379944e+00   0.000000000000e+00   1.579649329185e+00  -1.096284866333e+00   9.792912006378e-02   9.852835536003e-02  -9.089209437370e-01   0.000000000000e+00  -2.958816476166e-02 
 -9.089209437370e-01   0.000000000000e+00  -2.958816476166e-02   0.000000000000e+00   6.147148832679e-02  -3.018300831318e-01   0.000000000000e+00   6.147148832679e-02  -3.018300831318e-01 
  2.446326464415e-01  -6.968569010496e-02  -1.630436629057e-01   4.136834144592e-01  -5.994292721152e-02  -4.055358171463e-01   5.974652767181e-01   2.566154301167e-02   4.958452191204e-03 
  3.464875817299e-01   3.076657280326e-02   9.850953221321e-01  -2.009869337082e+00   2.371762879193e-02   1.620030403137e+00  -1.191957116127e+00   1.621537059546e-01   2.233983129263e-01 
 -3.788232803345e-01   3.672370016575e-01  -3.775519505143e-02  -3.788232803345e-01   3.672370016575e-01  -3.775519505143e-02   0.000000000000e+00   1.924511976540e-02  -5.221233963966e-01 
  0.000000000000e+00   1.924511976540e-02  -5.221233963966e-01   1.857586354017e-01   1.849376410246e-02  -5.022853016853e-01   3.060197532177e-01   1.093157827854e-01  -4.905268251896e-01 
  7.562301158905e-01   2.101094275713e-01   5.895934104919e-01   4.953339397907e-01   7.638785243034e-02  -3.077910840511e-01  -7.066538184881e-02   1.036547794938e-01   1.021180450916e-01 
  1.523146271706e+00   1.776406913996e-01  -1.714510172606e-01   1.127387166023e+00   2.693626284599e-01  -1.095674466342e-02   1.127387166023e+00   2.693626284599e-01  -1.095674466342e-02 
  0.000000000000e+00   1.324650645256e-01  -3.142448663712e-01   0.000000000000e+00   1.324650645256e-01  -3.142448663712e-01   2.057149857283e-01   6.878552585840e-02  -1.824402511120e-01 
  2.607237398624e-01   1.192687172443e-02  -6.783252358437e-01   3.866980671883e-01   1.225964128971e-01  -5.074441432953e-01   7.790104150772e-01  -3.094370849431e-02  -3.603388965130e-01 
 -2.440493553877e-01  -1.963697746396e-02   1.039562672377e-01  -9.351933747530e-02  -2.671297825873e-02  -2.820511162281e-01  -1.541629731655e-01   1.870319247246e-01  -1.539411693811e-01 
 -1.541629731655e-01   1.870319247246e-01  -1.539411693811e-01   0.000000000000e+00   7.758502662182e-02  -7.112271189690e-01   0.000000000000e+00   7.758502662182e-02  -7.112271189690e-01 
  3.630166947842e-01   1.406639963388e-01  -5.116232633591e-01   1.573065668344e-01   2.707956545055e-02  -9.294208288193e-01   8.165633082390e-01  -2.314615529031e-03  -1.118722319603e+00 
  5.310724377632e-01  -2.595307119191e-02  -1.491080880165e+00  -6.292507052422e-01  -6.198230758309e-02  -1.074581861496e+00  -6.539955139160e-01  -2.196599170566e-02  -9.583338499069e-01 
 -5.230804681778e-01   1.110821515322e-01   1.260069161654e-01  -5.230804681778e-01   1.110821515322e-01   1.260069161654e-01   0.000000000000e+00   0.000000000000e+00  -6.736232042313e-01 
  0.000000000000e+00   0.000000000000e+00  -6.736232042313e-01   7.562112808228e-02   0.000000000000e+00  -6.798040270805e-01   1.579341739416e-01   0.000000000000e+00  -1.016165494919e+00 
  1.211105227470e+00   0.000000000000e+00  -1.232075333595e+00   1.316934585571e+00   0.000000000000e+00  -1.907598495483e+00   5.789470672607e-01   0.000000000000e+00  -1.444174170494e+00 
 -1.105934381485e+00   0.000000000000e+00  -1.997489094734e+00  -9.074776768684e-01   2.028383221386e-07  -7.182126045227e-01  -9.074776768684e-01   2.028383221386e-07  -7.182126045227e-01 
  0.000000000000e+00   0.000000000000e+00  -6.736232042313e-01   0.000000000000e+00   0.000000000000e+00  -6.736232042313e-01   7.562112808228e-02   0.000000000000e+00  -6.798040270805e-01 
  1.579341739416e-01   0.000000000000e+00  -1.016165494919e+00   1.211105227470e+00   0.000000000000e+00  -1.232075333595e+00   1.316934585571e+00   0.000000000000e+00  -1.907598495483e+00 
  5.789470672607e-01   0.000000000000e+00  -1.444174170494e+00  -1.105934381485e+00   0.000000000000e+00  -1.997489094734e+00  -9.074776768684e-01   2.028383221386e-07  -7.182126045227e-01 
 -9.074776768684e-01   2.028383221386e-07  -7.182126045227e-01   0.000000000000e+00  -2.597826533020e-02  -6.522267460823e-01   0.000000000000e+00  -2.597826533020e-02  -6.522267460823e-01 
  1.997060477734e-01  -1.766748726368e-02  -5.862934589386e-01   6.862575411797e-01  -4.740973934531e-03  -6.299848556519e-01   4.913121759892e-01  -2.072494663298e-02  -5.026176571846e-01 
  3.622317314148e-01   3.257402181625e-01  -1.000000014901e-01   0.000000000000e+00   5.947480797768e-01  -1.000000014901e-01   0.000000000000e+00   4.587924480438e-01  -1.000000014901e-01 
  0.000000000000e+00   4.761094227433e-02  -3.909980952740e-01   0.000000000000e+00   4.761094227433e-02  -3.909980952740e-01   0.000000000000e+00  -2.597826533020e-02  -6.522267460823e-01 
  0.000000000000e+00  -2.597826533020e-02  -6.522267460823e-01   1.997060477734e-01  -1.766748726368e-02  -5.862934589386e-01   6.862575411797e-01  -4.740973934531e-03  -6.299848556519e-01 
  4.913121759892e-01  -2.072494663298e-02  -5.026176571846e-01   3.622317314148e-01   3.257402181625e-01  -1.000000014901e-01   0.000000000000e+00   5.947480797768e-01  -1.000000014901e-01 
  0.000000000000e+00   4.587924480438e-01  -1.000000014901e-01   0.000000000000e+00   4.761094227433e-02  -3.909980952740e-01   0.000000000000e+00   4.761094227433e-02  -3.909980952740e-01 
  0.000000000000e+00  -1.482095941901e-02  -7.688643932343e-01   0.000000000000e+00  -1.482095941901e-02  -7.688643932343e-01   1.792780011892e-01   1.558425184339e-02  -1.961231231689e-01 
  2.762791514397e-01  -6.903474777937e-02  -1.016859531403e+00   0.000000000000e+00  -4.567758738995e-02  -1.000000014901e-01   1.822132617235e-02   3.833561241627e-01   2.659029364586e-01 
 -8.345499038696e-01   6.000353693962e-01   3.100157380104e-01  -6.829250454903e-01   4.361927211285e-01  -1.996061354876e-01   1.254327893257e-01   4.761094227433e-02  -2.919365763664e-01 
  1.254327893257e-01   4.761094227433e-02  -2.919365763664e-01   0.000000000000e+00   1.100120693445e-01  -4.141389727592e-01   0.000000000000e+00   1.100120693445e-01  -4.141389727592e-01 
  1.744932029396e-03   1.820027828217e-02  -1.404053270817e-01   1.300720274448e-01  -9.168136864901e-02  -2.968593537807e-01   3.043717443943e-01  -5.198902264237e-02   2.582221925259e-01 
  3.436245024204e-01   2.534832060337e-02   1.108954668045e+00  -1.449901103973e+00   0.000000000000e+00   1.598699092865e+00  -1.245909810066e+00   7.911029458046e-02   2.533405721188e-01 
 -7.946292161942e-01   0.000000000000e+00  -1.000000014901e-01  -7.946292161942e-01   0.000000000000e+00  -1.000000014901e-01   0.000000000000e+00   5.405037850142e-02  -3.423546850681e-01 
  0.000000000000e+00   5.405037850142e-02  -3.423546850681e-01   6.362090259790e-02   2.417406253517e-02   1.717528849840e-01   3.331001698971e-01   3.177926689386e-02  -1.224968433380e-01 
  5.484229922295e-01   1.205576509237e-01   1.280241489410e+00   3.922071754932e-01   5.971819534898e-02   1.369649171829e+00  -1.623494625092e+00   0.000000000000e+00   1.636996865273e+00 
 -1.319169878960e+00   1.195656582713e-01   5.156751275063e-01  -5.373152494431e-01   3.118588328362e-01   9.580410271883e-02  -5.373152494431e-01   3.118588328362e-01   9.580410271883e-02 
  0.000000000000e+00  -2.399940043688e-03  -5.716558694839e-01   0.000000000000e+00  -2.399940043688e-03  -5.716558694839e-01   1.057405844331e-01   9.887596964836e-02  -5.004906058311e-01 
  4.771323502064e-01   8.213629573584e-02  -3.000473082066e-01   5.566857457161e-01   1.869644969702e-01   1.582704424858e+00   2.976675033569e-01   1.406103372574e-01   1.457208991051e+00 
 -3.758347406983e-02   0.000000000000e+00   9.226462803781e-03   0.000000000000e+00   1.346695721149e-01  -1.135249435902e-01   0.000000000000e+00   2.101368606091e-01  -6.397135555744e-02 