# vtk DataFile Version 2.0
Written using VisIt writer
ASCII
DATASET RECTILINEAR_GRID
DIMENSIONS 10 10 10
X_COORDINATES 10 float
  0.000000000000e+00   5.000000000000e-01   1.000000000000e+00   1.500000000000e+00   2.000000000000e+00   2.500000000000e+00   3.000000000000e+00   3.500000000000e+00   4.000000000000e+00 
  4.500000000000e+00 
Y_COORDINATES 10 float
  0.000000000000e+00   5.000000000000e-01   1.000000000000e+00   1.500000000000e+00   2.000000000000e+00   2.500000000000e+00   3.000000000000e+00   3.500000000000e+00   4.000000000000e+00 
  4.500000000000e+00 
Z_COORDINATES 10 float
  0.000000000000e+00   5.000000000000e-01   1.000000000000e+00   1.500000000000e+00   2.000000000000e+00   2.500000000000e+00   3.000000000000e+00   3.500000000000e+00   4.000000000000e+00 
  4.500000000000e+00 
CELL_DATA 729
POINT_DATA 1000
VECTORS velocity float
  0.000000000000e+00  -2.363622188568e-01  -4.173078536987e-01   6.409009434272e-10   2.330132531370e-09   2.665739184948e-09   2.685248091439e-06   6.409978658972e-10   6.235323368742e-10 
  1.119739115238e-01  -1.840349435806e-01  -4.097176492214e-01   6.700733301557e-10   8.142401683453e-13   1.357144891258e-19   6.337064206718e-10   1.724700808836e-07   6.410545982938e-10 
 -1.089366823435e-01  -2.570251524448e-01  -4.321504235268e-01   2.640485945449e-06   6.701442178958e-10   6.409694996989e-10   1.680083369138e-04   2.330132531370e-09   6.664347962371e-10 
 -1.416177004576e-01  -2.534493207932e-01  -4.522475600243e-01   0.000000000000e+00  -2.363622188568e-01  -4.173078536987e-01   6.409690556097e-10   8.142401683453e-13   1.356847106238e-19 
 -4.773476347327e-02  -1.947257220745e-01  -4.309591054916e-01   1.119739115238e-01  -1.840349435806e-01  -4.097176492214e-01   6.409689445874e-10   6.409690556097e-10   6.409690556097e-10 
 -2.156813070178e-02  -2.291585505009e-01  -3.822544813156e-01  -1.089366823435e-01  -2.570251524448e-01  -4.321504235268e-01   1.356847106238e-19   6.336922098171e-10   6.409690556097e-10 
 -1.416177004576e-01  -2.534493207932e-01  -4.522475600243e-01  -1.416177004576e-01  -2.534493207932e-01  -4.522475600243e-01   0.000000000000e+00   2.874546051025e-01  -3.563791513443e-01 
  0.000000000000e+00   2.874546051025e-01  -3.563791513443e-01  -1.369001716375e-01   2.490223795176e-01  -4.055751264095e-01  -1.786306314170e-02   1.036765277386e-01  -4.368794858456e-01 
 -7.828170806170e-02   9.072904288769e-02  -4.692384898663e-01   6.436268240213e-02   8.528311550617e-02  -4.128058254719e-01  -3.665040060878e-02   1.144060119987e-01  -4.214100241661e-01 
  2.065205015242e-02   2.321912795305e-01  -4.160701036453e-01  -1.330194175243e-01   2.846000492573e-01  -4.263387918472e-01  -1.330194175243e-01   2.846000492573e-01  -4.263387918472e-01 
  0.000000000000e+00  -3.898606076837e-02  -3.508292436600e-01   0.000000000000e+00  -3.898606076837e-02  -3.508292436600e-01  -7.551409304142e-02  -5.088759586215e-02  -3.949206471443e-01 
  4.914032295346e-02   7.848930358887e-02  -4.129477441311e-01  -8.797289431095e-02   2.439641393721e-02  -4.120260775089e-01  -8.394001424313e-02  -1.119668185711e-01  -4.340712428093e-01 
 -1.129060983658e-01  -7.700043916702e-02  -5.533074140549e-01   4.634710773826e-02  -1.059428006411e-01  -4.322090744972e-01  -7.636492699385e-02  -9.508430212736e-02  -4.038123190403e-01 
 -7.636492699385e-02  -9.508430212736e-02  -4.038123190403e-01   0.000000000000e+00  -6.246464326978e-02  -3.769751191139e-01   0.000000000000e+00  -6.246464326978e-02  -3.769751191139e-01 
 -1.074678599834e-01  -6.748786568642e-02  -4.885059893131e-01   8.825518935919e-02  -1.006750687957e-01  -4.295992851257e-01   1.582439430058e-02  -1.164988148957e-02  -4.115935266018e-01 
  4.710852354765e-02   1.464757174253e-01  -3.870484828949e-01  -1.213561072946e-01   1.278472840786e-01  -4.173921644688e-01  -8.565764874220e-02  -5.910555645823e-02  -4.436661005020e-01 
 -1.402970552444e-01  -5.369555577636e-02  -4.948688447475e-01  -1.402970552444e-01  -5.369555577636e-02  -4.948688447475e-01   0.000000000000e+00   1.194287836552e-01  -3.393476903439e-01 
  0.000000000000e+00   1.194287836552e-01  -3.393476903439e-01  -1.497495025396e-01   1.109725311399e-01  -3.992771506310e-01  -7.620975375175e-02  -8.583133667707e-02  -4.557538330555e-01 
 -1.076679304242e-01  -1.123888343573e-01  -5.330670475960e-01   9.791266173124e-02  -1.172499358654e-01  -4.281078577042e-01   4.095142707229e-03  -1.593646476977e-03  -4.180827140808e-01 
  3.340793773532e-02   1.250901818275e-01  -4.035246968269e-01  -1.365825682878e-01   1.368661969900e-01  -4.291411042213e-01  -1.365825682878e-01   1.368661969900e-01  -4.291411042213e-01 
  0.000000000000e+00  -1.153163388371e-01  -3.471639156342e-01   0.000000000000e+00  -1.153163388371e-01  -3.471639156342e-01  -4.345333948731e-02  -6.169311236590e-03  -3.972750306129e-01 
  5.221006274223e-02   1.537185460329e-01  -4.170556962490e-01  -1.408913433552e-01   1.199544146657e-01  -4.247117042542e-01  -7.569155097008e-02  -8.360490202904e-02  -4.640303552151e-01 
 -1.086808219552e-01  -1.209516376257e-01  -4.942514598370e-01   2.012638188899e-02  -1.562513262033e-01  -4.296129941940e-01  -9.523411095142e-02  -1.076194494963e-01  -4.014048576355e-01 
 -9.523411095142e-02  -1.076194494963e-01  -4.014048576355e-01   0.000000000000e+00  -1.416550874710e-01  -3.925899267197e-01   0.000000000000e+00  -1.416550874710e-01  -3.925899267197e-01 
 -1.241680905223e-01  -9.537372738123e-02  -4.428074359894e-01   1.007112041116e-01   1.032152585685e-02  -4.193372428417e-01   2.344682998955e-02   1.101640909910e-01  -4.087442159653e-01 
  4.341874644160e-02   1.678038835526e-01  -3.972745537758e-01  -1.393940448761e-01   7.718427479267e-02  -4.190416336060e-01  -1.002960950136e-01  -1.124207377434e-01  -4.387764036655e-01 
 -1.166222915053e-01  -5.636496469378e-02  -4.463643431664e-01  -1.166222915053e-01  -5.636496469378e-02  -4.463643431664e-01   0.000000000000e+00   0.000000000000e+00  -3.917639553547e-01 
  0.000000000000e+00   0.000000000000e+00  -3.917639553547e-01  -1.889908462763e-01   0.000000000000e+00  -4.621195495129e-01  -1.102083399892e-01   0.000000000000e+00  -4.339199662209e-01 
 -1.023492366076e-01   0.000000000000e+00  -4.406438767910e-01   2.311486303806e-01   0.000000000000e+00  -4.021755754948e-01   1.046671420336e-01   0.000000000000e+00  -4.139995872974e-01 
  2.500489167869e-02   0.000000000000e+00  -4.583693146706e-01   6.239291746169e-03   0.000000000000e+00  -4.194706678391e-01   6.239291746169e-03   0.000000000000e+00  -4.194706678391e-01 
  0.000000000000e+00   0.000000000000e+00  -3.917639553547e-01   0.000000000000e+00   0.000000000000e+00  -3.917639553547e-01  -1.889908462763e-01   0.000000000000e+00  -4.621195495129e-01 
 -1.102083399892e-01   0.000000000000e+00  -4.339199662209e-01  -1.023492366076e-01   0.000000000000e+00  -4.406438767910e-01   2.311486303806e-01   0.000000000000e+00  -4.021755754948e-01 
  1.046671420336e-01   0.000000000000e+00  -4.139995872974e-01   2.500489167869e-02   0.000000000000e+00  -4.583693146706e-01   6.239291746169e-03   0.000000000000e+00  -4.194706678391e-01 
  6.239291746169e-03   0.000000000000e+00  -4.194706678391e-01   0.000000000000e+00  -2.363622188568e-01  -4.173078536987e-01   0.000000000000e+00  -2.363622188568e-01  -4.173078536987e-01 
 -4.773476347327e-02  -1.947257220745e-01  -4.309591054916e-01   1.119739115238e-01  -1.840349435806e-01  -4.097176492214e-01  -2.456923760474e-02  -2.052970528603e-01  -4.056947529316e-01 
 -2.156813070178e-02  -2.291585505009e-01  -3.822544813156e-01  -1.089366823435e-01  -2.570251524448e-01  -4.321504235268e-01  -5.154188349843e-02  -2.702680230141e-01  -4.518418014050e-01 
 -1.416177004576e-01  -2.534493207932e-01  -4.522475600243e-01  -1.416177004576e-01  -2.534493207932e-01  -4.522475600243e-01   0.000000000000e+00  -2.363622188568e-01  -4.173078536987e-01 
  0.000000000000e+00  -2.363622188568e-01  -4.173078536987e-01  -4.773476347327e-02  -1.947257220745e-01  -4.309591054916e-01   1.119739115238e-01  -1.840349435806e-01  -4.097176492214e-01 
 -2.456923760474e-02  -2.052970528603e-01  -4.056947529316e-01  -2.156813070178e-02  -2.291585505009e-01  -3.822544813156e-01  -1.089366823435e-01  -2.570251524448e-01  -4.321504235268e-01 
 -5.154188349843e-02  -2.702680230141e-01  -4.518418014050e-01  -1.416177004576e-01  -2.534493207932e-01  -4.522475600243e-01  -1.416177004576e-01  -2.534493207932e-01  -4.522475600243e-01 
  0.000000000000e+00   2.874546051025e-01  -3.563791513443e-01   0.000000000000e+00   2.874546051025e-01  -3.563791513443e-01  -1.369001716375e-01   2.490223795176e-01  -4.055751264095e-01 
 -1.786306314170e-02   1.036765277386e-01  -4.368794858456e-01  -7.828170806170e-02   9.072904288769e-02  -4.692384898663e-01   6.436268240213e-02   8.528311550617e-02  -4.128058254719e-01 
 -3.665040060878e-02   1.144060119987e-01  -4.214100241661e-01   2.065205015242e-02   2.321912795305e-01  -4.160701036453e-01  -1.330194175243e-01   2.846000492573e-01  -4.263387918472e-01 
 -1.330194175243e-01   2.846000492573e-01  -4.263387918472e-01   0.000000000000e+00  -3.898606076837e-02  -3.508292436600e-01   0.000000000000e+00  -3.898606076837e-02  -3.508292436600e-01 
 -7.551409304142e-02  -5.088759586215e-02  -3.949206471443e-01   4.914032295346e-02   7.848930358887e-02  -4.129477441311e-01  -8.797289431095e-02   2.439641393721e-02  -4.120260775089e-01 
 -8.394001424313e-02  -1.119668185711e-01  -4.340712428093e-01  -1.129060983658e-01  -7.700043916702e-02  -5.533074140549e-01   4.634710773826e-02  -1.059428006411e-01  -4.322090744972e-01 
 -7.636492699385e-02  -9.508430212736e-02  -4.038123190403e-01  -7.636492699385e-02  -9.508430212736e-02  -4.038123190403e-01   0.000000000000e+00  -6.246464326978e-02  -3.769751191139e-01 
  0.000000000000e+00  -6.246464326978e-02  -3.769751191139e-01  -1.074678599834e-01  -6.748786568642e-02  -4.885059893131e-01   8.825518935919e-02  -1.006750687957e-01  -4.295992851257e-01 
  1.582439430058e-02  -1.164988148957e-02  -4.115935266018e-01   4.710852354765e-02   1.464757174253e-01  -3.870484828949e-01  -1.213561072946e-01   1.278472840786e-01  -4.173921644688e-01 
 -8.565764874220e-02  -5.910555645823e-02  -4.436661005020e-01  -1.402970552444e-01  -5.369555577636e-02  -4.948688447475e-01  -1.402970552444e-01  -5.369555577636e-02  -4.948688447475e-01 
  0.000000000000e+00   1.194287836552e-01  -3.393476903439e-01   0.000000000000e+00   1.194287836552e-01  -3.393476903439e-01  -1.497495025396e-01   1.109725311399e-01  -3.992771506310e-01 
 -7.620975375175e-02  -8.583133667707e-02  -4.557538330555e-01  -1.076679304242e-01  -1.123888343573e-01  -5.330670475960e-01   9.791266173124e-02  -1.172499358654e-01  -4.281078577042e-01 
  4.095142707229e-03  -1.593646476977e-03  -4.180827140808e-01   3.340793773532e-02   1.250901818275e-01  -4.035246968269e-01  -1.365825682878e-01   1.368661969900e-01  -4.291411042213e-01 
 -1.365825682878e-01   1.368661969900e-01  -4.291411042213e-01   0.000000000000e+00  -1.153163388371e-01  -3.471639156342e-01   0.000000000000e+00  -1.153163388371e-01  -3.471639156342e-01 
 -4.345333948731e-02  -6.169311236590e-03  -3.972750306129e-01   5.221006274223e-02   1.537185460329e-01  -4.170556962490e-01  -1.408913433552e-01   1.199544146657e-01  -4.247117042542e-01 
 -7.569155097008e-02  -8.360490202904e-02  -4.640303552151e-01  -1.086808219552e-01  -1.209516376257e-01  -4.942514598370e-01   2.012638188899e-02  -1.562513262033e-01  -4.296129941940e-01 
 -9.523411095142e-02  -1.076194494963e-01  -4.014048576355e-01  -9.523411095142e-02  -1.076194494963e-01  -4.014048576355e-01   0.000000000000e+00  -1.416550874710e-01  -3.925899267197e-01 
  0.000000000000e+00  -1.416550874710e-01  -3.925899267197e-01  -1.241680905223e-01  -9.537372738123e-02  -4.428074359894e-01   1.007112041116e-01   1.032152585685e-02  -4.193372428417e-01 
  2.344682998955e-02   1.101640909910e-01  -4.087442159653e-01   4.341874644160e-02   1.678038835526e-01  -3.972745537758e-01  -1.393940448761e-01   7.718427479267e-02  -4.190416336060e-01 
 -1.002960950136e-01  -1.124207377434e-01  -4.387764036655e-01  -1.166222915053e-01  -5.636496469378e-02  -4.463643431664e-01  -1.166222915053e-01  -5.636496469378e-02  -4.463643431664e-01 
  0.000000000000e+00   0.000000000000e+00  -3.917639553547e-01   0.000000000000e+00   0.000000000000e+00  -3.917639553547e-01  -1.889908462763e-01   0.000000000000e+00  -4.621195495129e-01 
 -1.102083399892e-01   0.000000000000e+00  -4.339199662209e-01  -1.023492366076e-01   0.000000000000e+00  -4.406438767910e-01   2.311486303806e-01   0.000000000000e+00  -4.021755754948e-01 
  1.046671420336e-01   0.000000000000e+00  -4.139995872974e-01   2.500489167869e-02   0.000000000000e+00  -4.583693146706e-01   6.239291746169e-03   0.000000000000e+00  -4.194706678391e-01 
  6.239291746169e-03   0.000000000000e+00  -4.194706678391e-01   0.000000000000e+00   0.000000000000e+00  -3.917639553547e-01   0.000000000000e+00   0.000000000000e+00  -3.917639553547e-01 
 -1.889908462763e-01   0.000000000000e+00  -4.621195495129e-01  -1.102083399892e-01   0.000000000000e+00  -4.339199662209e-01  -1.023492366076e-01   0.000000000000e+00  -4.406438767910e-01 
  2.311486303806e-01   0.000000000000e+00  -4.021755754948e-01   1.046671420336e-01   0.000000000000e+00  -4.139995872974e-01   2.500489167869e-02   0.000000000000e+00  -4.583693146706e-01 
  6.239291746169e-03   0.000000000000e+00  -4.194706678391e-01   6.239291746169e-03   0.000000000000e+00  -4.194706678391e-01   0.000000000000e+00  -2.776570916176e-01  -5.127650499344e-01 
  0.000000000000e+00  -2.776570916176e-01  -5.127650499344e-01  -3.509603068233e-02  -2.708149552345e-01  -5.740960240364e-01  -9.322025580332e-04  -2.821322977543e-01  -7.290358543396e-01 
 -1.393981091678e-02  -2.907651066780e-01  -7.573562860489e-01  -1.935551688075e-02  -2.908574044704e-01  -8.106614947319e-01  -4.018948227167e-02  -2.826099097729e-01  -7.111852765083e-01 
 -2.338128536940e-02  -2.852438092232e-01  -6.808402538300e-01  -3.146163746715e-02  -2.642616033554e-01  -6.070256829262e-01  -3.146163746715e-02  -2.642616033554e-01  -6.070256829262e-01 
  0.000000000000e+00  -2.776570916176e-01  -5.127650499344e-01   0.000000000000e+00  -2.776570916176e-01  -5.127650499344e-01  -3.509603068233e-02  -2.708149552345e-01  -5.740960240364e-01 
 -9.322025580332e-04  -2.821322977543e-01  -7.290358543396e-01  -1.393981091678e-02  -2.907651066780e-01  -7.573562860489e-01  -1.935551688075e-02  -2.908574044704e-01  -8.106614947319e-01 
 -4.018948227167e-02  -2.826099097729e-01  -7.111852765083e-01  -2.338128536940e-02  -2.852438092232e-01  -6.808402538300e-01  -3.146163746715e-02  -2.642616033554e-01  -6.070256829262e-01 
 -3.146163746715e-02  -2.642616033554e-01  -6.070256829262e-01   0.000000000000e+00   2.453371882439e-01  -5.850849747658e-01   0.000000000000e+00   2.453371882439e-01  -5.850849747658e-01 
 -5.148840323091e-02   2.303570806980e-01  -6.085130572319e-01  -1.477672159672e-02   2.090676426888e-01  -6.800304055214e-01  -2.129836194217e-02   2.020629644394e-01  -6.312804222107e-01 
 -1.000530924648e-02   2.283742129803e-01  -7.277270555496e-01  -2.443502657115e-02   2.423257082701e-01  -7.262332439423e-01  -1.056000962853e-02   2.513016462326e-01  -7.770049571991e-01 
 -2.784810587764e-02   2.402555495501e-01  -7.343546152115e-01  -2.784810587764e-02   2.402555495501e-01  -7.343546152115e-01   0.000000000000e+00  -6.497287750244e-02  -5.817183852196e-01 
  0.000000000000e+00  -6.497287750244e-02  -5.817183852196e-01  -4.478492215276e-02  -6.802728772163e-02  -6.201927661896e-01  -1.405575592071e-02  -6.593879312277e-02  -7.886578440666e-01 
 -2.642001397908e-02  -7.542503625154e-02  -7.705997228622e-01  -2.074013836682e-02  -8.139597624540e-02  -7.140859961510e-01  -2.994357608259e-02  -7.592403888702e-02  -6.092218756676e-01 
 -1.906871423125e-02  -7.728801667690e-02  -6.935766339302e-01  -2.660366892815e-02  -7.511876523495e-02  -6.722800135612e-01  -2.660366892815e-02  -7.511876523495e-02  -6.722800135612e-01 
  0.000000000000e+00   2.880760282278e-02  -5.117648839951e-01   0.000000000000e+00   2.880760282278e-02  -5.117648839951e-01  -4.650013893843e-02   2.593611367047e-02  -5.215450525284e-01 
 -1.601584814489e-02   1.982735656202e-02  -6.931836605072e-01  -1.668891869485e-02   2.447469532490e-02  -7.229074239731e-01  -7.649163715541e-03   3.768196702003e-02  -8.050104975700e-01 
 -2.700466662645e-02   3.810700401664e-02  -7.627771496773e-01  -2.033602073789e-02   3.984095901251e-02  -6.816158294678e-01  -2.818615734577e-02   3.921736404300e-02  -5.870048403740e-01 
 -2.818615734577e-02   3.921736404300e-02  -5.870048403740e-01   0.000000000000e+00   1.065430883318e-02  -6.162376999855e-01   0.000000000000e+00   1.065430883318e-02  -6.162376999855e-01 
 -5.214342847466e-02   2.217315603048e-03  -6.630260944366e-01  -1.972978934646e-02  -5.373341497034e-03  -7.062823176384e-01  -2.854763343930e-02  -1.865735277534e-02  -6.115078330040e-01 
 -8.643137291074e-03  -2.131131663918e-02  -7.021343708038e-01  -1.702504418790e-02  -4.876320250332e-03  -7.226145863533e-01  -1.016440615058e-02   6.530075334013e-03  -7.933257222176e-01 
 -2.598003298044e-02   7.974868640304e-03  -7.309842705727e-01  -2.598003298044e-02   7.974868640304e-03  -7.309842705727e-01   0.000000000000e+00  -2.251536212862e-02  -5.656764507294e-01 
  0.000000000000e+00  -2.251536212862e-02  -5.656764507294e-01  -3.587279841304e-02  -4.307899158448e-03  -6.322236061096e-01  -6.366655696183e-03   1.266351900995e-02  -8.039047718048e-01 
 -2.331659011543e-02   1.487099751830e-02  -7.665365338326e-01  -1.440471224487e-02   1.133633684367e-02  -6.808434724808e-01  -3.228199109435e-02  -3.681952832267e-03  -6.059693098068e-01 
 -1.853929646313e-02  -1.731965690851e-02  -6.676277518272e-01  -2.405267208815e-02  -1.605647057295e-02  -6.315591931343e-01  -2.405267208815e-02  -1.605647057295e-02  -6.315591931343e-01 
  0.000000000000e+00  -1.847686618567e-02  -4.782430231571e-01   0.000000000000e+00  -1.847686618567e-02  -4.782430231571e-01  -4.697753116488e-02  -2.121660485864e-02  -5.176244974136e-01 
 -3.910838626325e-03  -1.629669591784e-02  -7.212941646576e-01  -1.805053208955e-03   9.299076162279e-03  -7.534308433533e-01   9.512984193861e-03   2.256342768669e-02  -8.206366896629e-01 
 -2.506339363754e-02   1.750003546476e-02  -7.662242054939e-01  -2.462616749108e-02   9.004418738186e-03  -6.449346542358e-01  -1.428083516657e-02   1.379416137934e-02  -5.676966309547e-01 
 -1.428083516657e-02   1.379416137934e-02  -5.676966309547e-01   0.000000000000e+00   0.000000000000e+00  -5.895011425018e-01   0.000000000000e+00   0.000000000000e+00  -5.895011425018e-01 
 -6.642450392246e-02   0.000000000000e+00  -6.087690591812e-01  -1.883752085268e-02   0.000000000000e+00  -6.567429304123e-01  -5.721410270780e-03   0.000000000000e+00  -5.813544392586e-01 
  3.296153619885e-02   0.000000000000e+00  -7.641438245773e-01   5.796635523438e-04   0.000000000000e+00  -8.615996241570e-01  -1.369096525013e-02   0.000000000000e+00  -8.380948901176e-01 
 -2.849819138646e-03   0.000000000000e+00  -7.915942072868e-01  -2.849819138646e-03   0.000000000000e+00  -7.915942072868e-01   0.000000000000e+00   0.000000000000e+00  -5.895011425018e-01 
  0.000000000000e+00   0.000000000000e+00  -5.895011425018e-01  -6.642450392246e-02   0.000000000000e+00  -6.087690591812e-01  -1.883752085268e-02   0.000000000000e+00  -6.567429304123e-01 
 -5.721410270780e-03   0.000000000000e+00  -5.813544392586e-01   3.296153619885e-02   0.000000000000e+00  -7.641438245773e-01   5.796635523438e-04   0.000000000000e+00  -8.615996241570e-01 
 -1.369096525013e-02   0.000000000000e+00  -8.380948901176e-01  -2.849819138646e-03   0.000000000000e+00  -7.915942072868e-01  -2.849819138646e-03   0.000000000000e+00  -7.915942072868e-01 
  0.000000000000e+00  -3.060875833035e-01  -4.265010356903e-01   0.000000000000e+00  -3.060875833035e-01  -4.265010356903e-01  -2.198810130358e-02  -3.123148679733e-01  -5.489791631699e-01 
 -4.430831409991e-03  -3.155627846718e-01  -6.685835719109e-01  -9.607726708055e-03  -3.217141330242e-01  -6.614143848419e-01  -1.348757091910e-02  -3.267662525177e-01  -6.553987860680e-01 
 -2.883307822049e-02  -3.345661163330e-01  -6.579942107201e-01  -1.560717914253e-02  -3.407262563705e-01  -6.521623134613e-01  -1.860345155001e-02  -3.376688063145e-01  -6.461918354034e-01 
 -1.860345155001e-02  -3.376688063145e-01  -6.461918354034e-01   0.000000000000e+00  -3.060875833035e-01  -4.265010356903e-01   0.000000000000e+00  -3.060875833035e-01  -4.265010356903e-01 
 -2.198810130358e-02  -3.123148679733e-01  -5.489791631699e-01  -4.430831409991e-03  -3.155627846718e-01  -6.685835719109e-01  -9.607726708055e-03  -3.217141330242e-01  -6.614143848419e-01 
 -1.348757091910e-02  -3.267662525177e-01  -6.553987860680e-01  -2.883307822049e-02  -3.345661163330e-01  -6.579942107201e-01  -1.560717914253e-02  -3.407262563705e-01  -6.521623134613e-01 
 -1.860345155001e-02  -3.376688063145e-01  -6.461918354034e-01  -1.860345155001e-02  -3.376688063145e-01  -6.461918354034e-01   0.000000000000e+00   1.950019150972e-01  -4.374718964100e-01 
  0.000000000000e+00   1.950019150972e-01  -4.374718964100e-01  -3.207888454199e-02   1.772683709860e-01  -5.535883307457e-01  -1.210047397763e-02   1.759350150824e-01  -6.734249591827e-01 
 -1.719367876649e-02   1.704502850771e-01  -6.715179681778e-01  -9.827921167016e-03   1.782958656549e-01  -6.628850698471e-01  -1.729717664421e-02   1.870532184839e-01  -6.582457423210e-01 
 -6.123860366642e-03   2.004719525576e-01  -6.468802690506e-01  -1.676070131361e-02   2.072400599718e-01  -6.452405452728e-01  -1.676070131361e-02   2.072400599718e-01  -6.452405452728e-01 
  0.000000000000e+00  -7.459738850594e-02  -4.315489828587e-01   0.000000000000e+00  -7.459738850594e-02  -4.315489828587e-01  -2.698045782745e-02  -7.196433842182e-02  -5.428037047386e-01 
 -9.118883870542e-03  -6.628227978945e-02  -6.443182826042e-01  -1.788247935474e-02  -6.796583533287e-02  -6.424635648727e-01  -1.784154027700e-02  -7.721463590860e-02  -6.469479203224e-01 
 -2.285025641322e-02  -8.249196410179e-02  -6.372745037079e-01  -1.298066787422e-02  -8.474534004927e-02  -6.298593282700e-01  -1.582520082593e-02  -8.209487795830e-02  -6.327598094940e-01 
 -1.582520082593e-02  -8.209487795830e-02  -6.327598094940e-01   0.000000000000e+00   2.051495388150e-02  -4.367566108704e-01   0.000000000000e+00   2.051495388150e-02  -4.367566108704e-01 
 -2.992377057672e-02   1.732888445258e-02  -5.351360440254e-01  -1.161054708064e-02   1.401351485401e-02  -6.497611403465e-01  -1.188041083515e-02   1.829785481095e-02  -6.572399139404e-01 
 -5.152225494385e-03   3.020137175918e-02  -6.450375914574e-01  -1.849636435509e-02   3.476142138243e-02  -6.424849629402e-01  -1.915925554931e-02   2.811595797539e-02  -6.498719453812e-01 
 -2.074716798961e-02   2.655241824687e-02  -6.326301693916e-01  -2.074716798961e-02   2.655241824687e-02  -6.326301693916e-01   0.000000000000e+00   5.575695075095e-03  -4.344659149647e-01 
  0.000000000000e+00   5.575695075095e-03  -4.344659149647e-01  -2.933395653963e-02   4.799220710993e-03  -5.449243783951e-01  -1.760418154299e-02  -1.842690166086e-03  -6.627311706543e-01 
 -2.201241999865e-02  -1.377618778497e-02  -6.530719399452e-01  -9.237980470061e-03  -1.825370639563e-02  -6.489150524139e-01  -1.085514202714e-02  -6.312442477793e-03  -6.513726711273e-01 
 -6.342933047563e-03   4.590129945427e-03  -6.377385258675e-01  -1.681837067008e-02   7.942897267640e-03  -6.358253359795e-01  -1.681837067008e-02   7.942897267640e-03  -6.358253359795e-01 
  0.000000000000e+00  -1.783102564514e-02  -4.335751533508e-01   0.000000000000e+00  -1.783102564514e-02  -4.335751533508e-01  -2.104320749640e-02  -4.628047347069e-03  -5.465075373650e-01 
 -3.103711409494e-03   1.104169897735e-02  -6.500079035759e-01  -1.560560613871e-02   1.704400405288e-02  -6.497684717178e-01  -1.640523970127e-02   1.020113285631e-02  -6.613470315933e-01 
 -2.319028973579e-02  -3.000048920512e-03  -6.562733650208e-01  -1.487397309393e-02  -1.290291734040e-02  -6.494617462158e-01  -1.457804813981e-02  -1.193996518850e-02  -6.410461068153e-01 
 -1.457804813981e-02  -1.193996518850e-02  -6.410461068153e-01   0.000000000000e+00  -1.006133854389e-02  -4.294489920139e-01   0.000000000000e+00  -1.006133854389e-02  -4.294489920139e-01 
 -2.926741540432e-02  -1.481149997562e-02  -5.323808789253e-01  -4.385651089251e-03  -1.432380452752e-02  -6.483276486397e-01  -1.377289416268e-03   2.592212753370e-03  -6.542010307312e-01 
  5.390105303377e-03   1.915077120066e-02  -6.479656100273e-01  -1.676718145609e-02   1.990798860788e-02  -6.501092314720e-01  -2.393604628742e-02   1.069038268179e-02  -6.587952971458e-01 
 -1.332549937069e-02   1.043050736189e-02  -6.265063881874e-01  -1.332549937069e-02   1.043050736189e-02  -6.265063881874e-01   0.000000000000e+00   0.000000000000e+00  -4.333836138248e-01 
  0.000000000000e+00   0.000000000000e+00  -4.333836138248e-01  -3.949416056275e-02   0.000000000000e+00  -5.467429161072e-01  -1.777288876474e-02   0.000000000000e+00  -6.634969115257e-01 
 -4.844712093472e-03   0.000000000000e+00  -6.336736083031e-01   2.037550881505e-02   0.000000000000e+00  -6.338798403740e-01   5.634650588036e-03   0.000000000000e+00  -6.499118804932e-01 
 -1.312587596476e-02   0.000000000000e+00  -6.430921554565e-01  -6.236474495381e-03   0.000000000000e+00  -6.310070157051e-01  -6.236474495381e-03   0.000000000000e+00  -6.310070157051e-01 
  0.000000000000e+00   0.000000000000e+00  -4.333836138248e-01   0.000000000000e+00   0.000000000000e+00  -4.333836138248e-01  -3.949416056275e-02   0.000000000000e+00  -5.467429161072e-01 
 -1.777288876474e-02   0.000000000000e+00  -6.634969115257e-01  -4.844712093472e-03   0.000000000000e+00  -6.336736083031e-01   2.037550881505e-02   0.000000000000e+00  -6.338798403740e-01 
  5.634650588036e-03   0.000000000000e+00  -6.499118804932e-01  -1.312587596476e-02   0.000000000000e+00  -6.430921554565e-01  -6.236474495381e-03   0.000000000000e+00  -6.310070157051e-01 
 -6.236474495381e-03   0.000000000000e+00  -6.310070157051e-01   0.000000000000e+00  -2.306442856789e-01  -4.435790777206e-01   0.000000000000e+00  -2.306442856789e-01  -4.435790777206e-01 
 -8.231743238866e-03  -2.285514920950e-01  -5.601723194122e-01  -7.445777766407e-03  -2.324305623770e-01  -6.822115778923e-01  -9.684064425528e-03  -2.373352646828e-01  -6.834726333618e-01 
 -1.191045157611e-02  -2.424586713314e-01  -6.853385567665e-01  -1.080197468400e-02  -2.473504692316e-01  -6.713967323303e-01  -9.849789552391e-03  -2.515895068645e-01  -6.626325249672e-01 
 -5.309212487191e-03  -2.543302178383e-01  -6.515957713127e-01  -5.309212487191e-03  -2.543302178383e-01  -6.515957713127e-01   0.000000000000e+00  -2.306442856789e-01  -4.435790777206e-01 
  0.000000000000e+00  -2.306442856789e-01  -4.435790777206e-01  -8.231743238866e-03  -2.285514920950e-01  -5.601723194122e-01  -7.445777766407e-03  -2.324305623770e-01  -6.822115778923e-01 
 -9.684064425528e-03  -2.373352646828e-01  -6.834726333618e-01  -1.191045157611e-02  -2.424586713314e-01  -6.853385567665e-01  -1.080197468400e-02  -2.473504692316e-01  -6.713967323303e-01 
 -9.849789552391e-03  -2.515895068645e-01  -6.626325249672e-01  -5.309212487191e-03  -2.543302178383e-01  -6.515957713127e-01  -5.309212487191e-03  -2.543302178383e-01  -6.515957713127e-01 
  0.000000000000e+00   1.213547587395e-01  -4.501712024212e-01   0.000000000000e+00   1.213547587395e-01  -4.501712024212e-01  -1.123401429504e-02   1.084596887231e-01  -5.698425173759e-01 
 -8.764737285674e-03   1.124850064516e-01  -6.927843093872e-01  -9.321762248874e-03   1.175465807319e-01  -6.858253479004e-01  -1.185191608965e-02   1.164076402783e-01  -6.868624091148e-01 
 -9.959606453776e-03   1.173362210393e-01  -6.807687282562e-01  -8.678429760039e-03   1.214613541961e-01  -6.823225021362e-01  -3.982562106103e-03   1.238657236099e-01  -6.748423576355e-01 
 -3.982562106103e-03   1.238657236099e-01  -6.748423576355e-01   0.000000000000e+00  -5.305415391922e-02  -4.337048232555e-01   0.000000000000e+00  -5.305415391922e-02  -4.337048232555e-01 
 -1.089268736541e-02  -5.352893471718e-02  -5.540348291397e-01  -1.266429200768e-02  -5.681934580207e-02  -6.801210641861e-01  -9.265840984881e-03  -5.615103244781e-02  -6.759772896767e-01 
 -9.253065101802e-03  -5.406043678522e-02  -6.688566207886e-01  -1.066653244197e-02  -5.494121834636e-02  -6.574408411980e-01  -9.289138019085e-03  -5.536121502519e-02  -6.520380377769e-01 
 -4.415497183800e-03  -5.590661615133e-02  -6.423302292824e-01  -4.415497183800e-03  -5.590661615133e-02  -6.423302292824e-01   0.000000000000e+00   1.421649567783e-02  -4.385725557804e-01 
  0.000000000000e+00   1.421649567783e-02  -4.385725557804e-01  -1.144228223711e-02   1.355854608119e-02  -5.598805546761e-01  -9.441146627069e-03   1.549839414656e-02  -6.789733767509e-01 
 -9.363372810185e-03   1.557696983218e-02  -6.747162938118e-01  -1.096899807453e-02   1.515531912446e-02  -6.812638640404e-01  -9.136917069554e-03   1.630795747042e-02  -6.779344677925e-01 
 -8.114381693304e-03   1.642686314881e-02  -6.687771081924e-01  -5.420164205134e-03   1.572284288704e-02  -6.558343768120e-01  -5.420164205134e-03   1.572284288704e-02  -6.558343768120e-01 
  0.000000000000e+00  -3.520960221067e-03  -4.448817372322e-01   0.000000000000e+00  -3.520960221067e-03  -4.448817372322e-01  -1.153757236898e-02  -3.795579774305e-03  -5.658517479897e-01 
 -9.143413975835e-03  -3.707887604833e-03  -6.845640540123e-01  -9.187240153551e-03  -2.895035548136e-03  -6.720380783081e-01  -8.821433410048e-03   1.046597972163e-04  -6.688429713249e-01 
 -9.002555161715e-03   5.597055424005e-04  -6.665527820587e-01  -9.431936778128e-03  -8.692172705196e-04  -6.703069210052e-01  -4.577239975333e-03  -5.082501447760e-04  -6.633249521255e-01 