# vtk DataFile Version 2.0
Written using VisIt writer
ASCII
DATASET RECTILINEAR_GRID
DIMENSIONS 10 10 10
X_COORDINATES 10 float
  0.000000000000e+00   5.000000000000e-01   1.000000000000e+00   1.500000000000e+00   2.000000000000e+00   2.500000000000e+00   3.000000000000e+00   3.500000000000e+00   4.000000000000e+00 
  4.500000000000e+00 
Y_COORDINATES 10 float
  0.000000000000e+00   5.000000000000e-01   1.000000000000e+00   1.500000000000e+00   2.000000000000e+00   2.500000000000e+00   3.000000000000e+00   3.500000000000e+00   4.000000000000e+00 
  4.500000000000e+00 
Z_COORDINATES 10 float
  0.000000000000e+00   5.000000000000e-01   1.000000000000e+00   1.500000000000e+00   2.000000000000e+00   2.500000000000e+00   3.000000000000e+00   3.500000000000e+00   4.000000000000e+00 
  4.500000000000e+00 
CELL_DATA 729
POINT_DATA 1000
VECTORS velocity float
  0.000000000000e+00  -1.351354420185e-01  -2.906289994717e-01   3.251200000000e+04   0.000000000000e+00   0.000000000000e+00   0.000000000000e+00   0.000000000000e+00   0.000000000000e+00 
 -7.335112243891e-02  -1.211454570293e-01  -2.926378548145e-01   0.000000000000e+00   0.000000000000e+00   0.000000000000e+00   0.000000000000e+00   1.431655808000e+09   1.070945600000e+09 
 -1.381450593472e-01  -1.385561823845e-01  -3.026756644249e-01   1.071994176000e+09   0.000000000000e+00   0.000000000000e+00   0.000000000000e+00   0.000000000000e+00   0.000000000000e+00 
 -8.169478178024e-02  -1.659138351679e-01  -4.468467533588e-01   0.000000000000e+00  -1.351354420185e-01  -2.906289994717e-01   1.070945600000e+09   0.000000000000e+00   0.000000000000e+00 
 -1.289561986923e-01  -1.520178169012e-01  -3.428758978844e-01  -7.335112243891e-02  -1.211454570293e-01  -2.926378548145e-01   1.431655808000e+09   1.070945600000e+09   0.000000000000e+00 
 -1.054462492466e-01  -1.095104590058e-01  -2.579358220100e-01  -1.381450593472e-01  -1.385561823845e-01  -3.026756644249e-01   0.000000000000e+00   0.000000000000e+00   1.071644672000e+09 
 -8.169478178024e-02  -1.659138351679e-01  -4.468467533588e-01  -8.169478178024e-02  -1.659138351679e-01  -4.468467533588e-01   0.000000000000e+00   4.468175396323e-02  -2.270842343569e-01 
  0.000000000000e+00   4.468175396323e-02  -2.270842343569e-01  -1.762550771236e-01   5.392601713538e-02  -2.835634946823e-01  -1.567104458809e-01  -4.580390825868e-02  -3.181636631489e-01 
 -1.340238749981e-01  -1.076981276274e-01  -3.544487357140e-01   4.789937660098e-02   1.469372119755e-02  -2.435782998800e-01   2.464085072279e-02   4.872415214777e-02  -2.604489624500e-01 
 -1.215393058374e-04   7.965225726366e-02  -2.443282604218e-01  -1.882411912084e-02   1.028975695372e-01  -2.936485111713e-01  -1.882411912084e-02   1.028975695372e-01  -2.936485111713e-01 
  0.000000000000e+00   6.422700826079e-03  -2.330878227949e-01   0.000000000000e+00   6.422700826079e-03  -2.330878227949e-01  -1.735807210207e-01   4.945265874267e-02  -2.814522087574e-01 
 -9.336096793413e-02   7.616500370204e-03  -2.673711478710e-01  -8.253724873066e-02  -2.177919633687e-02  -2.524535059929e-01  -9.612799435854e-02   1.151470094919e-02  -2.601572275162e-01 
 -1.378953307867e-01   4.213200416416e-03  -3.567857742310e-01   4.456034302711e-02  -2.850499935448e-03  -2.636227011681e-01   2.460644021630e-02  -4.960052669048e-02  -2.909825146198e-01 
  2.460644021630e-02  -4.960052669048e-02  -2.909825146198e-01   0.000000000000e+00  -5.816362425685e-02  -2.671611607075e-01   0.000000000000e+00  -5.816362425685e-02  -2.671611607075e-01 
 -1.641801297665e-01  -7.326866686344e-02  -3.716902136803e-01   4.010853171349e-02  -3.654329478741e-02  -3.553609549999e-01   2.203244483098e-03  -2.643424458802e-02  -2.582591176033e-01 
 -8.680712431669e-02   6.941002607346e-02  -2.309624254704e-01  -1.902673393488e-01   7.461930066347e-02  -2.579355537891e-01  -1.389280408621e-01  -5.624149367213e-02  -3.067303597927e-01 
 -1.047320887446e-01  -9.644453227520e-02  -4.629516601562e-01  -1.047320887446e-01  -9.644453227520e-02  -4.629516601562e-01   0.000000000000e+00   5.745110660791e-02  -2.222971767187e-01 
  0.000000000000e+00   5.745110660791e-02  -2.222971767187e-01  -1.802970468998e-01   6.994909048080e-02  -2.590704560280e-01  -1.410915255547e-01   7.664784044027e-02  -3.324337303638e-01 
 -1.369145810604e-01   4.489737004042e-02  -3.880334496498e-01   2.285810746253e-02   8.499439060688e-02  -2.308668345213e-01  -1.001371350139e-02   6.110142543912e-02  -2.311338186264e-01 
 -4.769900068641e-02   4.784990102053e-02  -2.176305502653e-01  -4.124607145786e-02   4.797066375613e-02  -2.421081513166e-01  -4.124607145786e-02   4.797066375613e-02  -2.421081513166e-01 
  0.000000000000e+00  -1.973923208425e-04  -2.529731094837e-01   0.000000000000e+00  -1.973923208425e-04  -2.529731094837e-01  -1.969939321280e-01   5.326433107257e-03  -2.862678468227e-01 
 -1.227739378810e-01   8.191019296646e-02  -2.740505933762e-01  -1.324401050806e-01   1.186650395393e-01  -2.875589132309e-01  -1.228089183569e-01   4.349984601140e-02  -3.164510428905e-01 
 -1.191927120090e-01  -7.207398884930e-04  -4.213156104088e-01   6.669157743454e-02  -3.227791190147e-02  -2.965941429138e-01   7.157489657402e-02  -8.899395912886e-02  -3.310638964176e-01 
  7.157489657402e-02  -8.899395912886e-02  -3.310638964176e-01   0.000000000000e+00  -8.859641104937e-02  -2.576045989990e-01   0.000000000000e+00  -8.859641104937e-02  -2.576045989990e-01 
 -1.967109441757e-01  -3.145155683160e-02  -3.353322744370e-01  -1.344568375498e-02   3.220891952515e-02  -2.586678564548e-01  -2.470294199884e-02   6.077303364873e-02  -2.478762865067e-01 
 -8.461084216833e-02   7.588214427233e-02  -2.377311140299e-01  -6.836909055710e-02   3.669527173042e-02  -2.565221190453e-01  -6.545316427946e-02  -1.136877015233e-01  -3.121605515480e-01 
 -3.468314930797e-02  -1.651973277330e-01  -4.401248991489e-01  -3.468314930797e-02  -1.651973277330e-01  -4.401248991489e-01   0.000000000000e+00   0.000000000000e+00  -2.234184294939e-01 
  0.000000000000e+00   0.000000000000e+00  -2.234184294939e-01  -2.000232338905e-01   0.000000000000e+00  -3.075451552868e-01  -1.421837210655e-01   0.000000000000e+00  -3.446925282478e-01 
 -7.818906009197e-02   0.000000000000e+00  -3.802632987499e-01   1.082911565900e-01   0.000000000000e+00  -2.971145808697e-01   9.625153988600e-02   0.000000000000e+00  -2.502200901508e-01 
  6.353303324431e-03   0.000000000000e+00  -2.714731991291e-01   1.257397085428e-01   0.000000000000e+00  -2.969721257687e-01   1.257397085428e-01   0.000000000000e+00  -2.969721257687e-01 
  0.000000000000e+00   0.000000000000e+00  -2.234184294939e-01   0.000000000000e+00   0.000000000000e+00  -2.234184294939e-01  -2.000232338905e-01   0.000000000000e+00  -3.075451552868e-01 
 -1.421837210655e-01   0.000000000000e+00  -3.446925282478e-01  -7.818906009197e-02   0.000000000000e+00  -3.802632987499e-01   1.082911565900e-01   0.000000000000e+00  -2.971145808697e-01 
  9.625153988600e-02   0.000000000000e+00  -2.502200901508e-01   6.353303324431e-03   0.000000000000e+00  -2.714731991291e-01   1.257397085428e-01   0.000000000000e+00  -2.969721257687e-01 
  1.257397085428e-01   0.000000000000e+00  -2.969721257687e-01   0.000000000000e+00  -1.351354420185e-01  -2.906289994717e-01   0.000000000000e+00  -1.351354420185e-01  -2.906289994717e-01 
 -1.289561986923e-01  -1.520178169012e-01  -3.428758978844e-01  -7.335112243891e-02  -1.211454570293e-01  -2.926378548145e-01  -7.360735535622e-02  -1.151674091816e-01  -2.668577134609e-01 
 -1.054462492466e-01  -1.095104590058e-01  -2.579358220100e-01  -1.381450593472e-01  -1.385561823845e-01  -3.026756644249e-01  -1.085909754038e-01  -1.453971564770e-01  -2.969287931919e-01 
 -8.169478178024e-02  -1.659138351679e-01  -4.468467533588e-01  -8.169478178024e-02  -1.659138351679e-01  -4.468467533588e-01   0.000000000000e+00  -1.351354420185e-01  -2.906289994717e-01 
  0.000000000000e+00  -1.351354420185e-01  -2.906289994717e-01  -1.289561986923e-01  -1.520178169012e-01  -3.428758978844e-01  -7.335112243891e-02  -1.211454570293e-01  -2.926378548145e-01 
 -7.360735535622e-02  -1.151674091816e-01  -2.668577134609e-01  -1.054462492466e-01  -1.095104590058e-01  -2.579358220100e-01  -1.381450593472e-01  -1.385561823845e-01  -3.026756644249e-01 
 -1.085909754038e-01  -1.453971564770e-01  -2.969287931919e-01  -8.169478178024e-02  -1.659138351679e-01  -4.468467533588e-01  -8.169478178024e-02  -1.659138351679e-01  -4.468467533588e-01 
  0.000000000000e+00   4.468175396323e-02  -2.270842343569e-01   0.000000000000e+00   4.468175396323e-02  -2.270842343569e-01  -1.762550771236e-01   5.392601713538e-02  -2.835634946823e-01 
 -1.567104458809e-01  -4.580390825868e-02  -3.181636631489e-01  -1.340238749981e-01  -1.076981276274e-01  -3.544487357140e-01   4.789937660098e-02   1.469372119755e-02  -2.435782998800e-01 
  2.464085072279e-02   4.872415214777e-02  -2.604489624500e-01  -1.215393058374e-04   7.965225726366e-02  -2.443282604218e-01  -1.882411912084e-02   1.028975695372e-01  -2.936485111713e-01 
 -1.882411912084e-02   1.028975695372e-01  -2.936485111713e-01   0.000000000000e+00   6.422700826079e-03  -2.330878227949e-01   0.000000000000e+00   6.422700826079e-03  -2.330878227949e-01 
 -1.735807210207e-01   4.945265874267e-02  -2.814522087574e-01  -9.336096793413e-02   7.616500370204e-03  -2.673711478710e-01  -8.253724873066e-02  -2.177919633687e-02  -2.524535059929e-01 
 -9.612799435854e-02   1.151470094919e-02  -2.601572275162e-01  -1.378953307867e-01   4.213200416416e-03  -3.567857742310e-01   4.456034302711e-02  -2.850499935448e-03  -2.636227011681e-01 
  2.460644021630e-02  -4.960052669048e-02  -2.909825146198e-01   2.460644021630e-02  -4.960052669048e-02  -2.909825146198e-01   0.000000000000e+00  -5.816362425685e-02  -2.671611607075e-01 
  0.000000000000e+00  -5.816362425685e-02  -2.671611607075e-01  -1.641801297665e-01  -7.326866686344e-02  -3.716902136803e-01   4.010853171349e-02  -3.654329478741e-02  -3.553609549999e-01 
  2.203244483098e-03  -2.643424458802e-02  -2.582591176033e-01  -8.680712431669e-02   6.941002607346e-02  -2.309624254704e-01  -1.902673393488e-01   7.461930066347e-02  -2.579355537891e-01 
 -1.389280408621e-01  -5.624149367213e-02  -3.067303597927e-01  -1.047320887446e-01  -9.644453227520e-02  -4.629516601562e-01  -1.047320887446e-01  -9.644453227520e-02  -4.629516601562e-01 
  0.000000000000e+00   5.745110660791e-02  -2.222971767187e-01   0.000000000000e+00   5.745110660791e-02  -2.222971767187e-01  -1.802970468998e-01   6.994909048080e-02  -2.590704560280e-01 
 -1.410915255547e-01   7.664784044027e-02  -3.324337303638e-01  -1.369145810604e-01   4.489737004042e-02  -3.880334496498e-01   2.285810746253e-02   8.499439060688e-02  -2.308668345213e-01 
 -1.001371350139e-02   6.110142543912e-02  -2.311338186264e-01  -4.769900068641e-02   4.784990102053e-02  -2.176305502653e-01  -4.124607145786e-02   4.797066375613e-02  -2.421081513166e-01 
 -4.124607145786e-02   4.797066375613e-02  -2.421081513166e-01   0.000000000000e+00  -1.973923208425e-04  -2.529731094837e-01   0.000000000000e+00  -1.973923208425e-04  -2.529731094837e-01 
 -1.969939321280e-01   5.326433107257e-03  -2.862678468227e-01  -1.227739378810e-01   8.191019296646e-02  -2.740505933762e-01  -1.324401050806e-01   1.186650395393e-01  -2.875589132309e-01 
 -1.228089183569e-01   4.349984601140e-02  -3.164510428905e-01  -1.191927120090e-01  -7.207398884930e-04  -4.213156104088e-01   6.669157743454e-02  -3.227791190147e-02  -2.965941429138e-01 
  7.157489657402e-02  -8.899395912886e-02  -3.310638964176e-01   7.157489657402e-02  -8.899395912886e-02  -3.310638964176e-01   0.000000000000e+00  -8.859641104937e-02  -2.576045989990e-01 
  0.000000000000e+00  -8.859641104937e-02  -2.576045989990e-01  -1.967109441757e-01  -3.145155683160e-02  -3.353322744370e-01  -1.344568375498e-02   3.220891952515e-02  -2.586678564548e-01 
 -2.470294199884e-02   6.077303364873e-02  -2.478762865067e-01  -8.461084216833e-02   7.588214427233e-02  -2.377311140299e-01  -6.836909055710e-02   3.669527173042e-02  -2.565221190453e-01 
 -6.545316427946e-02  -1.136877015233e-01  -3.121605515480e-01  -3.468314930797e-02  -1.651973277330e-01  -4.401248991489e-01  -3.468314930797e-02  -1.651973277330e-01  -4.401248991489e-01 
  0.000000000000e+00   0.000000000000e+00  -2.234184294939e-01   0.000000000000e+00   0.000000000000e+00  -2.234184294939e-01  -2.000232338905e-01   0.000000000000e+00  -3.075451552868e-01 
 -1.421837210655e-01   0.000000000000e+00  -3.446925282478e-01  -7.818906009197e-02   0.000000000000e+00  -3.802632987499e-01   1.082911565900e-01   0.000000000000e+00  -2.971145808697e-01 
  9.625153988600e-02   0.000000000000e+00  -2.502200901508e-01   6.353303324431e-03   0.000000000000e+00  -2.714731991291e-01   1.257397085428e-01   0.000000000000e+00  -2.969721257687e-01 
  1.257397085428e-01   0.000000000000e+00  -2.969721257687e-01   0.000000000000e+00   0.000000000000e+00  -2.234184294939e-01   0.000000000000e+00   0.000000000000e+00  -2.234184294939e-01 
 -2.000232338905e-01   0.000000000000e+00  -3.075451552868e-01  -1.421837210655e-01   0.000000000000e+00  -3.446925282478e-01  -7.818906009197e-02   0.000000000000e+00  -3.802632987499e-01 
  1.082911565900e-01   0.000000000000e+00  -2.971145808697e-01   9.625153988600e-02   0.000000000000e+00  -2.502200901508e-01   6.353303324431e-03   0.000000000000e+00  -2.714731991291e-01 
  1.257397085428e-01   0.000000000000e+00  -2.969721257687e-01   1.257397085428e-01   0.000000000000e+00  -2.969721257687e-01   0.000000000000e+00  -1.132495179772e-01  -3.853955268860e-01 
  0.000000000000e+00  -1.132495179772e-01  -3.853955268860e-01  -7.933608256280e-03  -1.334775984287e-01  -7.683860063553e-01  -1.515769809484e-01  -1.522051841021e-01  -1.126189112663e+00 
 -9.826110303402e-02  -1.420214772224e-01  -1.033243656158e+00  -3.294165804982e-02  -1.390762627125e-01  -1.066715002060e+00  -7.408440858126e-02  -1.476700603962e-01  -1.033197879791e+00 
 -9.998132474720e-03  -1.452238261700e-01  -9.647065401077e-01   4.532765597105e-02  -1.427611112595e-01  -9.287142753601e-01   4.532765597105e-02  -1.427611112595e-01  -9.287142753601e-01 
  0.000000000000e+00  -1.132495179772e-01  -3.853955268860e-01   0.000000000000e+00  -1.132495179772e-01  -3.853955268860e-01  -7.933608256280e-03  -1.334775984287e-01  -7.683860063553e-01 
 -1.515769809484e-01  -1.522051841021e-01  -1.126189112663e+00  -9.826110303402e-02  -1.420214772224e-01  -1.033243656158e+00  -3.294165804982e-02  -1.390762627125e-01  -1.066715002060e+00 
 -7.408440858126e-02  -1.476700603962e-01  -1.033197879791e+00  -9.998132474720e-03  -1.452238261700e-01  -9.647065401077e-01   4.532765597105e-02  -1.427611112595e-01  -9.287142753601e-01 
  4.532765597105e-02  -1.427611112595e-01  -9.287142753601e-01   0.000000000000e+00  -3.680512541905e-03  -4.637252688408e-01   0.000000000000e+00  -3.680512541905e-03  -4.637252688408e-01 
 -5.081067606807e-02  -4.630861431360e-02  -8.526117205620e-01  -1.537134796381e-01  -2.874376997352e-02  -1.104145526886e+00  -9.661670029163e-02  -4.189753159881e-02  -9.618576765060e-01 
 -5.966880545020e-02  -4.500918462873e-02  -1.029739618301e+00  -5.359946191311e-02  -5.117838829756e-02  -1.029534339905e+00  -2.339424006641e-02  -4.568826034665e-02  -1.010470151901e+00 
  7.501918077469e-02  -3.331830725074e-02  -1.000840902328e+00   7.501918077469e-02  -3.331830725074e-02  -1.000840902328e+00   0.000000000000e+00   1.024063769728e-02  -4.744648635387e-01 
  0.000000000000e+00   1.024063769728e-02  -4.744648635387e-01  -4.293298348784e-03   2.001693397760e-01  -7.666665911674e-01  -1.494335085154e-01   1.334059983492e-01  -1.140754103661e+00 
 -7.845356315374e-02   1.340969800949e-01  -1.008717179298e+00  -1.676307246089e-02   1.540586501360e-01  -1.040792107582e+00  -6.597752124071e-02   1.307855099440e-01  -9.129456281662e-01 
 -4.543198272586e-02   1.387142390013e-01  -1.028624892235e+00   8.190175890923e-02   1.409012973309e-01  -1.049934267998e+00   8.190175890923e-02   1.409012973309e-01  -1.049934267998e+00 
  0.000000000000e+00  -2.428666129708e-02  -4.047933518887e-01   0.000000000000e+00  -2.428666129708e-02  -4.047933518887e-01  -5.596566945314e-02  -4.186952486634e-02  -7.250670790672e-01 
 -1.471267044544e-01  -6.167654320598e-02  -1.149873256683e+00  -4.218231141567e-02  -3.568010777235e-02  -9.773471355438e-01  -4.136419668794e-02  -3.612639755011e-02  -9.914069771767e-01 
 -5.390967801213e-02  -1.677770726383e-02  -8.444399237633e-01  -2.032426744699e-02   8.317992091179e-03  -8.828674554825e-01   6.657709181309e-02   1.195854321122e-02  -8.687973022461e-01 
  6.657709181309e-02   1.195854321122e-02  -8.687973022461e-01   0.000000000000e+00   7.850787043571e-02  -4.799961745739e-01   0.000000000000e+00   7.850787043571e-02  -4.799961745739e-01 
 -4.550291597843e-02   2.023569867015e-02  -8.019842505455e-01  -1.879431605339e-01  -5.613235384226e-02  -1.160113811493e+00  -1.421615947038e-02  -2.973890863359e-02  -9.741265177727e-01 
 -2.620183117688e-02  -2.119398117065e-02  -1.025980591774e+00  -4.032302647829e-02  -1.559849549085e-02  -9.918506741524e-01  -3.096638619900e-02  -6.397382239811e-04  -1.008667588234e+00 
  7.891810685396e-02  -3.623401047662e-03  -9.865654706955e-01   7.891810685396e-02  -3.623401047662e-03  -9.865654706955e-01   0.000000000000e+00  -3.346510231495e-02  -4.014296233654e-01 
  0.000000000000e+00  -3.346510231495e-02  -4.014296233654e-01   2.049678703770e-03   1.212809002027e-03  -7.351142168045e-01  -1.825591474771e-01   2.236235328019e-02  -1.179640054703e+00 
 -2.341275103390e-02   3.651036322117e-02  -1.043701291084e+00   2.469157567248e-03   6.156779825687e-02  -1.001717925072e+00  -3.206778690219e-02   8.282542973757e-02  -9.295054078102e-01 
 -4.990843310952e-02   9.544438123703e-02  -1.022120237350e+00   7.679662108421e-02   6.573083251715e-02  -1.020681619644e+00   7.679662108421e-02   6.573083251715e-02  -1.020681619644e+00 
  0.000000000000e+00  -5.015021562576e-02  -2.735224664211e-01   0.000000000000e+00  -5.015021562576e-02  -2.735224664211e-01  -1.344649959356e-02  -7.353520393372e-02  -6.275143027306e-01 
 -1.577577739954e-01  -5.513373762369e-02  -1.111341953278e+00  -7.346807513386e-03  -4.833117127419e-02  -1.028185129166e+00   3.054492361844e-02  -5.147185921669e-02  -1.064984917641e+00 
 -9.821827523410e-03  -5.304280295968e-02  -9.690348505974e-01  -2.167811244726e-02  -1.960236020386e-02  -9.906831979752e-01   3.423713147640e-02  -8.075533807278e-02  -9.149390459061e-01 
  3.423713147640e-02  -8.075533807278e-02  -9.149390459061e-01   0.000000000000e+00   0.000000000000e+00  -4.747526943684e-01   0.000000000000e+00   0.000000000000e+00  -4.747526943684e-01 
 -1.547280512750e-02   0.000000000000e+00  -8.514488339424e-01  -1.822255551815e-01   0.000000000000e+00  -1.201065540314e+00   1.681171730161e-02   0.000000000000e+00  -1.038866758347e+00 
 -3.070496255532e-03   0.000000000000e+00  -1.171059727669e+00   1.477761752903e-02   0.000000000000e+00  -1.039228200912e+00  -4.380506649613e-02   0.000000000000e+00  -1.101485729218e+00 
  1.330540925264e-01   0.000000000000e+00  -1.076826691628e+00   1.330540925264e-01   0.000000000000e+00  -1.076826691628e+00   0.000000000000e+00   0.000000000000e+00  -4.747526943684e-01 
  0.000000000000e+00   0.000000000000e+00  -4.747526943684e-01  -1.547280512750e-02   0.000000000000e+00  -8.514488339424e-01  -1.822255551815e-01   0.000000000000e+00  -1.201065540314e+00 
  1.681171730161e-02   0.000000000000e+00  -1.038866758347e+00  -3.070496255532e-03   0.000000000000e+00  -1.171059727669e+00   1.477761752903e-02   0.000000000000e+00  -1.039228200912e+00 
 -4.380506649613e-02   0.000000000000e+00  -1.101485729218e+00   1.330540925264e-01   0.000000000000e+00  -1.076826691628e+00   1.330540925264e-01   0.000000000000e+00  -1.076826691628e+00 
  0.000000000000e+00  -1.775526441634e-02  -1.156438142061e-01   0.000000000000e+00  -1.775526441634e-02  -1.156438142061e-01   1.163817420602e-01  -7.652767468244e-03  -1.803401857615e-01 
 -1.408435851336e-01   2.370843850076e-02  -6.445536017418e-01  -1.176744550467e-01   5.575576331466e-03  -6.107465624809e-01  -4.048604890704e-02  -1.409392245114e-02  -7.339417934418e-01 
 -7.271910458803e-02  -2.355507016182e-02  -7.103139162064e-01  -7.796988356858e-03  -2.605211921036e-02  -7.132951021194e-01   5.216873809695e-02  -2.684610709548e-02  -7.388532161713e-01 
  5.216873809695e-02  -2.684610709548e-02  -7.388532161713e-01   0.000000000000e+00  -1.775526441634e-02  -1.156438142061e-01   0.000000000000e+00  -1.775526441634e-02  -1.156438142061e-01 
  1.163817420602e-01  -7.652767468244e-03  -1.803401857615e-01  -1.408435851336e-01   2.370843850076e-02  -6.445536017418e-01  -1.176744550467e-01   5.575576331466e-03  -6.107465624809e-01 
 -4.048604890704e-02  -1.409392245114e-02  -7.339417934418e-01  -7.271910458803e-02  -2.355507016182e-02  -7.103139162064e-01  -7.796988356858e-03  -2.605211921036e-02  -7.132951021194e-01 
  5.216873809695e-02  -2.684610709548e-02  -7.388532161713e-01   5.216873809695e-02  -2.684610709548e-02  -7.388532161713e-01   0.000000000000e+00   9.832340292633e-03  -6.444982439280e-02 
  0.000000000000e+00   9.832340292633e-03  -6.444982439280e-02   1.039869710803e-01  -2.779586799443e-02  -1.473454385996e-01  -1.260417997837e-01   2.094800025225e-02  -6.549043059349e-01 
 -1.400628536940e-01  -4.586368158925e-04  -4.644770324230e-01  -6.337063759565e-02  -3.932632878423e-02  -7.330867052078e-01  -4.146590828896e-02  -6.701381206512e-01  -7.404212951660e-01 
  6.197542883456e-03  -5.850263312459e-02  -7.048224806786e-01   7.769999653101e-02  -6.044708192348e-02  -7.286276817322e-01   7.769999653101e-02  -6.044708192348e-02  -7.286276817322e-01 
  0.000000000000e+00   3.544358909130e-02  -9.145899862051e-02   0.000000000000e+00   3.544358909130e-02  -9.145899862051e-02   9.632751345634e-02  -4.468688368797e-02  -1.343180984259e-01 
 -2.141800150275e-02   9.257546067238e-02  -6.634888052940e-01  -6.063197180629e-02   1.017644256353e-01  -6.134678721428e-01  -1.894464716315e-02   1.380648612976e-01  -7.112897038460e-01 
 -7.012740522623e-02  -3.402331471443e-01  -7.810461521149e-01  -1.827699504793e-02  -9.991934895515e-02  -8.713054060936e-01   8.038080483675e-02  -1.481286734343e-01  -7.858785986900e-01 
  8.038080483675e-02  -1.481286734343e-01  -7.858785986900e-01   0.000000000000e+00   1.905431039631e-02  -1.211893931031e-01   0.000000000000e+00   1.905431039631e-02  -1.211893931031e-01 
  1.136944815516e-01   2.208670601249e-02  -1.235067918897e-01   7.575172185898e-02  -1.979491859674e-02  -7.124759554863e-01   1.715944521129e-02  -3.138723596931e-02  -5.835632085800e-01 
 -3.977493941784e-02  -4.077285528183e-02  -6.377445459366e-01  -4.950747638941e-02  -7.282830029726e-02  -5.863907337189e-01  -5.263073835522e-03  -3.721452876925e-02  -6.553661823273e-01 
  7.347894459963e-02  -5.630015954375e-02  -6.577740907669e-01   7.347894459963e-02  -5.630015954375e-02  -6.577740907669e-01   0.000000000000e+00   1.200089082122e-01  -2.028006017208e-01 
  0.000000000000e+00   1.200089082122e-01  -2.028006017208e-01   1.749426722527e-01   7.999408990145e-02  -1.468166261911e-01  -1.085060089827e-01   1.430282928050e-02  -8.814736604691e-01 
  7.925990968943e-02   4.080186039209e-02  -5.131716132164e-01  -7.438376545906e-02  -2.202459238470e-02  -7.569026947021e-01  -2.454766817391e-02  -1.026259083301e-02  -7.419943213463e-01 
 -3.140488266945e-02   3.701886907220e-02  -7.355484962463e-01   7.745096832514e-02  -1.606531068683e-02  -6.686291098595e-01   7.745096832514e-02  -1.606531068683e-02  -6.686291098595e-01 
  0.000000000000e+00  -5.716363713145e-02  -2.028912603855e-01   0.000000000000e+00  -5.716363713145e-02  -2.028912603855e-01   1.875529885292e-01   2.742834202945e-02  -2.232713103294e-01 
 -1.539648324251e-01   4.342850670218e-02  -7.893294095993e-01   1.850579050370e-03  -2.321242913604e-02  -7.088592052460e-01  -8.285991847515e-02  -2.627143822610e-02  -7.727029323578e-01 
  1.332930382341e-02   3.123568557203e-02  -6.904762387276e-01  -3.585560247302e-02   9.057930856943e-02  -7.125077843666e-01   6.776586920023e-02   7.483661174774e-02  -7.047716975212e-01 
  6.776586920023e-02   7.483661174774e-02  -7.047716975212e-01   0.000000000000e+00  -4.725763201714e-02  -2.397791296244e-01   0.000000000000e+00  -4.725763201714e-02  -2.397791296244e-01 
  1.831084638834e-01  -4.158294573426e-02  -2.510904073715e-01  -1.564835608006e-01   2.149542979896e-02  -6.537407040596e-01   3.993508219719e-02  -3.419996052980e-02  -6.757801175117e-01 
  2.149220854044e-01  -5.937546957284e-03  -6.883925795555e-01   1.695347428322e-01  -3.431417793036e-02  -6.032152175903e-01   5.532505363226e-02   6.086241826415e-02  -5.512380599976e-01 
  5.206651613116e-02  -6.488304585218e-02  -3.925404548645e-01   5.206651613116e-02  -6.488304585218e-02  -3.925404548645e-01   0.000000000000e+00   0.000000000000e+00  -1.615044027567e-01 
  0.000000000000e+00   0.000000000000e+00  -1.615044027567e-01   1.430724412203e-01  -4.507355129135e-07  -8.790449053049e-02   9.989538788795e-02   1.473305418637e-12  -8.815724849701e-01 
  1.344988644123e-01   0.000000000000e+00  -5.229355096817e-01   3.992992341518e-01   0.000000000000e+00  -8.213355541229e-01   4.607150554657e-01   0.000000000000e+00  -5.565229058266e-01 
  6.831052154303e-02  -6.238857284188e-03  -6.423771381378e-01   2.361223846674e-01   0.000000000000e+00  -5.946485996246e-01   2.361223846674e-01   0.000000000000e+00  -5.946485996246e-01 
  0.000000000000e+00   0.000000000000e+00  -1.615044027567e-01   0.000000000000e+00   0.000000000000e+00  -1.615044027567e-01   1.430724412203e-01  -4.507355129135e-07  -8.790449053049e-02 
  9.989538788795e-02   1.473305418637e-12  -8.815724849701e-01   1.344988644123e-01   0.000000000000e+00  -5.229355096817e-01   3.992992341518e-01   0.000000000000e+00  -8.213355541229e-01 
  4.607150554657e-01   0.000000000000e+00  -5.565229058266e-01   6.831052154303e-02  -6.238857284188e-03  -6.423771381378e-01   2.361223846674e-01   0.000000000000e+00  -5.946485996246e-01 
  2.361223846674e-01   0.000000000000e+00  -5.946485996246e-01   0.000000000000e+00   1.075179874897e-02  -2.688207328320e-01   0.000000000000e+00   1.075179874897e-02  -2.688207328320e-01 
  6.580391526222e-02   2.300035580993e-02  -2.442673891783e-01   3.578922525048e-02   2.621859870851e-02  -2.112009972334e-01  -6.956522911787e-02  -9.325943887234e-02  -3.451870977879e-01 
 -2.744084782898e-02  -2.606826722622e-01  -4.131107628345e-01  -3.646253421903e-02   0.000000000000e+00  -1.000000014901e-01  -1.820989884436e-02  -2.285512834787e-01  -5.872712135315e-01 
  3.345046564937e-02  -1.183994933963e-01  -6.894960403442e-01   3.345046564937e-02  -1.183994933963e-01  -6.894960403442e-01   0.000000000000e+00   1.075179874897e-02  -2.688207328320e-01 
  0.000000000000e+00   1.075179874897e-02  -2.688207328320e-01   6.580391526222e-02   2.300035580993e-02  -2.442673891783e-01   3.578922525048e-02   2.621859870851e-02  -2.112009972334e-01 
 -6.956522911787e-02  -9.325943887234e-02  -3.451870977879e-01  -2.744084782898e-02  -2.606826722622e-01  -4.131107628345e-01  -3.646253421903e-02   0.000000000000e+00  -1.000000014901e-01 
 -1.820989884436e-02  -2.285512834787e-01  -5.872712135315e-01   3.345046564937e-02  -1.183994933963e-01  -6.894960403442e-01   3.345046564937e-02  -1.183994933963e-01  -6.894960403442e-01 
  0.000000000000e+00   2.366122230887e-02  -2.933070361614e-01   0.000000000000e+00   2.366122230887e-02  -2.933070361614e-01   5.689897388220e-02   2.478802576661e-02   1.053174026310e-02 
 -1.092138327658e-02   2.986134029925e-02   3.582746386528e-01   0.000000000000e+00  -1.810416579247e-01   5.864078998566e-01   0.000000000000e+00  -6.285123229027e-01  -1.000000014901e-01 
 -3.645991161466e-02  -8.828892707825e-01  -4.111910164356e-01  -9.346198290586e-03  -5.379187464714e-01  -7.126239538193e-01   3.577011823654e-02  -2.062429934740e-01  -6.012759804726e-01 
  3.577011823654e-02  -2.062429934740e-01  -6.012759804726e-01   0.000000000000e+00   1.316642761230e-02   7.530733197927e-02   0.000000000000e+00   1.316642761230e-02   7.530733197927e-02 
 -4.381336271763e-02  -6.166078615934e-03  -7.302341610193e-02  -3.157681971788e-02   5.791197344661e-02  -3.762084543705e-01  -2.318899706006e-02  -1.016878709197e-01  -3.015320003033e-01 
 -2.196617424488e-02  -5.936120748520e-01  -7.195869088173e-01  -3.737551346421e-02  -8.557755351067e-01  -7.331529259682e-01  -1.497850008309e-02  -4.374395012856e-01  -1.045133590698e+00 
  4.014627635479e-02  -1.799044758081e-01  -3.907167315483e-01   4.014627635479e-02  -1.799044758081e-01  -3.907167315483e-01   0.000000000000e+00   8.108880370855e-03   1.296017412096e-02 
  0.000000000000e+00   8.108880370855e-03   1.296017412096e-02   1.337839523330e-03   1.509779319167e-02  -4.618805646896e-02  -3.184632956982e-02   1.339337509125e-02  -2.203646153212e-01 
  3.525328263640e-02   4.018807038665e-02   4.115830361843e-01  -2.484166063368e-02  -1.799029409885e-01  -1.435294002295e-01  -4.861767962575e-02  -5.198928713799e-01  -6.848257184029e-01 
 -4.375219810754e-03  -1.501534134150e-01  -1.095843434334e+00   6.031391024590e-02  -1.023474931717e-01  -5.436569452286e-01   6.031391024590e-02  -1.023474931717e-01  -5.436569452286e-01 
  0.000000000000e+00   1.654392629862e-01  -1.135294213891e-01   0.000000000000e+00   1.654392629862e-01  -1.135294213891e-01   1.435558348894e-01   6.033403053880e-02  -9.061048179865e-02 
 -2.108024209738e-01   5.807534977794e-02  -8.846729993820e-02   4.461576789618e-02   9.341090917587e-02   7.578516006470e-01  -6.101390719414e-02   2.782531455159e-02   1.453796923161e-01 
 -4.375943541527e-02  -8.400816470385e-03  -3.934947550297e-01  -7.655158638954e-03   7.907947525382e-03  -7.262328863144e-01   6.813476234674e-02   0.000000000000e+00  -1.000000014901e-01 