# vtk DataFile Version 2.0
Written using VisIt writer
ASCII
DATASET RECTILINEAR_GRID
DIMENSIONS 10 10 10
X_COORDINATES 10 float
  0.000000000000e+00   5.000000000000e-01   1.000000000000e+00   1.500000000000e+00   2.000000000000e+00   2.500000000000e+00   3.000000000000e+00   3.500000000000e+00   4.000000000000e+00 
  4.500000000000e+00 
Y_COORDINATES 10 float
  0.000000000000e+00   5.000000000000e-01   1.000000000000e+00   1.500000000000e+00   2.000000000000e+00   2.500000000000e+00   3.000000000000e+00   3.500000000000e+00   4.000000000000e+00 
  4.500000000000e+00 
Z_COORDINATES 10 float
  0.000000000000e+00   5.000000000000e-01   1.000000000000e+00   1.500000000000e+00   2.000000000000e+00   2.500000000000e+00   3.000000000000e+00   3.500000000000e+00   4.000000000000e+00 
  4.500000000000e+00 
CELL_DATA 729
POINT_DATA 1000
VECTORS velocity float
  0.000000000000e+00  -1.178343221545e-01  -2.250340878963e-01   3.251200000000e+04   0.000000000000e+00   0.000000000000e+00   0.000000000000e+00   0.000000000000e+00   0.000000000000e+00 
  1.132401600480e-01  -7.042603194714e-02  -1.558242142200e-01   0.000000000000e+00   0.000000000000e+00   0.000000000000e+00   0.000000000000e+00   1.431655808000e+09   1.070945600000e+09 
  1.518434658647e-02  -1.022894009948e-01  -1.694250553846e-01   1.071994176000e+09   0.000000000000e+00   0.000000000000e+00   0.000000000000e+00   0.000000000000e+00   0.000000000000e+00 
  8.972796797752e-02  -1.928176432848e-01  -1.972766965628e-01   0.000000000000e+00  -1.178343221545e-01  -2.250340878963e-01   1.070945600000e+09   0.000000000000e+00   0.000000000000e+00 
  5.366572365165e-02  -9.845924377441e-02  -1.902519911528e-01   1.132401600480e-01  -7.042603194714e-02  -1.558242142200e-01   1.431655808000e+09   1.070945600000e+09   0.000000000000e+00 
  9.651159495115e-02  -5.566932633519e-02  -1.378504782915e-01   1.518434658647e-02  -1.022894009948e-01  -1.694250553846e-01   0.000000000000e+00   0.000000000000e+00   1.071644672000e+09 
  8.972796797752e-02  -1.928176432848e-01  -1.972766965628e-01   8.972796797752e-02  -1.928176432848e-01  -1.972766965628e-01   0.000000000000e+00   2.158746309578e-02  -1.982294619083e-01 
  0.000000000000e+00   2.158746309578e-02  -1.982294619083e-01  -1.146940141916e-02  -2.215658575296e-01  -2.075679451227e-01   1.611947417259e-01  -2.736810445786e-01  -1.978410482407e-01 
  5.464198812842e-02  -2.244838774204e-01  -1.910971701145e-01   1.002520024776e-01  -7.060190290213e-02  -1.413519680500e-01   5.340661108494e-02  -1.081772707403e-02  -1.435935795307e-01 
  6.764527410269e-02  -2.173797599971e-02  -1.435731500387e-01   6.918721646070e-02  -4.358474910259e-02  -1.525156348944e-01   6.918721646070e-02  -4.358474910259e-02  -1.525156348944e-01 
  0.000000000000e+00   4.726558551192e-02  -1.768540441990e-01   0.000000000000e+00   4.726558551192e-02  -1.768540441990e-01   1.076878905296e-01  -9.912289679050e-02  -1.750670969486e-01 
  8.054060488939e-02  -2.710948465392e-04  -1.613434851170e-01   4.292495176196e-02   2.406080020592e-03  -1.507125496864e-01   1.295097023249e-01  -9.728031605482e-02  -1.491797715425e-01 
  1.189725175500e-01  -9.386532008648e-02  -1.875505447388e-01   1.704574227333e-01  -9.887355566025e-02  -1.418393552303e-01   1.329360008240e-01  -5.268430337310e-02  -1.385751217604e-01 
  1.329360008240e-01  -5.268430337310e-02  -1.385751217604e-01   0.000000000000e+00  -1.097727916203e-03  -2.084265053272e-01   0.000000000000e+00  -1.097727916203e-03  -2.084265053272e-01 
 -1.046741232276e-01  -1.063218563795e-01  -2.248532921076e-01   7.257928699255e-02  -1.965688169003e-02  -1.867684721947e-01   7.304688543081e-02  -5.778846517205e-02  -1.450304389000e-01 
  6.547995656729e-02  -6.226146221161e-02  -1.451885849237e-01   2.629880979657e-02   2.614019438624e-02  -1.645495891571e-01   1.660641133785e-01  -5.766809359193e-02  -1.521786302328e-01 
  1.344834566116e-01  -1.106394082308e-01  -1.845747828484e-01   1.344834566116e-01  -1.106394082308e-01  -1.845747828484e-01   0.000000000000e+00  -2.688404172659e-02  -1.805521845818e-01 
  0.000000000000e+00  -2.688404172659e-02  -1.805521845818e-01   3.408518619835e-03   3.369374666363e-03  -1.850441992283e-01   1.145391687751e-01   7.999690622091e-02  -1.759214699268e-01 
  1.626628041267e-01  -2.828335948288e-02  -1.868824511766e-01   7.145962119102e-02  -2.043106593192e-02  -1.482520252466e-01   2.479111216962e-02  -1.064649224281e-02  -1.450610160828e-01 
 -1.726819761097e-02  -1.531773619354e-02  -1.350048482418e-01   4.716484248638e-02   2.735578641295e-02  -1.442371308804e-01   4.716484248638e-02   2.735578641295e-02  -1.442371308804e-01 
  0.000000000000e+00  -3.461397066712e-02  -1.832042485476e-01   0.000000000000e+00  -3.461397066712e-02  -1.832042485476e-01   4.048039764166e-02  -7.422596216202e-02  -1.674508750439e-01 
  2.555710263550e-02   2.276715263724e-02  -1.632977575064e-01   1.294433474541e-01   6.788026541471e-02  -1.641650497913e-01   1.480091214180e-01   2.304554358125e-02  -1.612272411585e-01 
  1.384240686893e-01  -4.913480207324e-02  -1.808534115553e-01   9.158201515675e-02  -4.316440969706e-02  -1.415950655937e-01   9.641428291798e-02  -5.198906175792e-03  -1.372598558664e-01 
  9.641428291798e-02  -5.198906175792e-03  -1.372598558664e-01   0.000000000000e+00  -6.496842950583e-02  -1.967379897833e-01   0.000000000000e+00  -6.496842950583e-02  -1.967379897833e-01 
 -3.799168393016e-02  -8.701896667480e-02  -2.045424133539e-01   4.874594137073e-02  -2.300800057128e-03  -1.589501947165e-01   1.143305599689e-01   2.482604235411e-02  -1.607210040092e-01 
  1.327813416719e-01   3.031088411808e-02  -1.365404874086e-01   1.032861620188e-01   7.734053581953e-02  -1.454163491726e-01   1.485473066568e-01   1.221537031233e-02  -1.553849130869e-01 
  1.893471330404e-01  -1.588787068613e-03  -1.900465339422e-01   1.893471330404e-01  -1.588787068613e-03  -1.900465339422e-01   0.000000000000e+00   0.000000000000e+00  -1.514207869768e-01 
  0.000000000000e+00   0.000000000000e+00  -1.514207869768e-01  -5.076684057713e-02   0.000000000000e+00  -1.663223952055e-01   2.911049500108e-02   0.000000000000e+00  -1.599804908037e-01 
  6.499846279621e-02   0.000000000000e+00  -1.878954172134e-01   1.258133351803e-01   0.000000000000e+00  -1.293239444494e-01   1.027549952269e-01   0.000000000000e+00  -1.239622831345e-01 
  1.807635277510e-01   0.000000000000e+00  -1.234321668744e-01   3.040543794632e-01   0.000000000000e+00  -1.297895759344e-01   3.040543794632e-01   0.000000000000e+00  -1.297895759344e-01 
  0.000000000000e+00   0.000000000000e+00  -1.514207869768e-01   0.000000000000e+00   0.000000000000e+00  -1.514207869768e-01  -5.076684057713e-02   0.000000000000e+00  -1.663223952055e-01 
  2.911049500108e-02   0.000000000000e+00  -1.599804908037e-01   6.499846279621e-02   0.000000000000e+00  -1.878954172134e-01   1.258133351803e-01   0.000000000000e+00  -1.293239444494e-01 
  1.027549952269e-01   0.000000000000e+00  -1.239622831345e-01   1.807635277510e-01   0.000000000000e+00  -1.234321668744e-01   3.040543794632e-01   0.000000000000e+00  -1.297895759344e-01 
  3.040543794632e-01   0.000000000000e+00  -1.297895759344e-01   0.000000000000e+00  -1.178343221545e-01  -2.250340878963e-01   0.000000000000e+00  -1.178343221545e-01  -2.250340878963e-01 
  5.366572365165e-02  -9.845924377441e-02  -1.902519911528e-01   1.132401600480e-01  -7.042603194714e-02  -1.558242142200e-01   1.233133450150e-01  -5.788130313158e-02  -1.462100744247e-01 
  9.651159495115e-02  -5.566932633519e-02  -1.378504782915e-01   1.518434658647e-02  -1.022894009948e-01  -1.694250553846e-01   5.382573232055e-02  -1.378489583731e-01  -1.985721439123e-01 
  8.972796797752e-02  -1.928176432848e-01  -1.972766965628e-01   8.972796797752e-02  -1.928176432848e-01  -1.972766965628e-01   0.000000000000e+00  -1.178343221545e-01  -2.250340878963e-01 
  0.000000000000e+00  -1.178343221545e-01  -2.250340878963e-01   5.366572365165e-02  -9.845924377441e-02  -1.902519911528e-01   1.132401600480e-01  -7.042603194714e-02  -1.558242142200e-01 
  1.233133450150e-01  -5.788130313158e-02  -1.462100744247e-01   9.651159495115e-02  -5.566932633519e-02  -1.378504782915e-01   1.518434658647e-02  -1.022894009948e-01  -1.694250553846e-01 
  5.382573232055e-02  -1.378489583731e-01  -1.985721439123e-01   8.972796797752e-02  -1.928176432848e-01  -1.972766965628e-01   8.972796797752e-02  -1.928176432848e-01  -1.972766965628e-01 
  0.000000000000e+00   2.158746309578e-02  -1.982294619083e-01   0.000000000000e+00   2.158746309578e-02  -1.982294619083e-01  -1.146940141916e-02  -2.215658575296e-01  -2.075679451227e-01 
  1.611947417259e-01  -2.736810445786e-01  -1.978410482407e-01   5.464198812842e-02  -2.244838774204e-01  -1.910971701145e-01   1.002520024776e-01  -7.060190290213e-02  -1.413519680500e-01 
  5.340661108494e-02  -1.081772707403e-02  -1.435935795307e-01   6.764527410269e-02  -2.173797599971e-02  -1.435731500387e-01   6.918721646070e-02  -4.358474910259e-02  -1.525156348944e-01 
  6.918721646070e-02  -4.358474910259e-02  -1.525156348944e-01   0.000000000000e+00   4.726558551192e-02  -1.768540441990e-01   0.000000000000e+00   4.726558551192e-02  -1.768540441990e-01 
  1.076878905296e-01  -9.912289679050e-02  -1.750670969486e-01   8.054060488939e-02  -2.710948465392e-04  -1.613434851170e-01   4.292495176196e-02   2.406080020592e-03  -1.507125496864e-01 
  1.295097023249e-01  -9.728031605482e-02  -1.491797715425e-01   1.189725175500e-01  -9.386532008648e-02  -1.875505447388e-01   1.704574227333e-01  -9.887355566025e-02  -1.418393552303e-01 
  1.329360008240e-01  -5.268430337310e-02  -1.385751217604e-01   1.329360008240e-01  -5.268430337310e-02  -1.385751217604e-01   0.000000000000e+00  -1.097727916203e-03  -2.084265053272e-01 
  0.000000000000e+00  -1.097727916203e-03  -2.084265053272e-01  -1.046741232276e-01  -1.063218563795e-01  -2.248532921076e-01   7.257928699255e-02  -1.965688169003e-02  -1.867684721947e-01 
  7.304688543081e-02  -5.778846517205e-02  -1.450304389000e-01   6.547995656729e-02  -6.226146221161e-02  -1.451885849237e-01   2.629880979657e-02   2.614019438624e-02  -1.645495891571e-01 
  1.660641133785e-01  -5.766809359193e-02  -1.521786302328e-01   1.344834566116e-01  -1.106394082308e-01  -1.845747828484e-01   1.344834566116e-01  -1.106394082308e-01  -1.845747828484e-01 
  0.000000000000e+00  -2.688404172659e-02  -1.805521845818e-01   0.000000000000e+00  -2.688404172659e-02  -1.805521845818e-01   3.408518619835e-03   3.369374666363e-03  -1.850441992283e-01 
  1.145391687751e-01   7.999690622091e-02  -1.759214699268e-01   1.626628041267e-01  -2.828335948288e-02  -1.868824511766e-01   7.145962119102e-02  -2.043106593192e-02  -1.482520252466e-01 
  2.479111216962e-02  -1.064649224281e-02  -1.450610160828e-01  -1.726819761097e-02  -1.531773619354e-02  -1.350048482418e-01   4.716484248638e-02   2.735578641295e-02  -1.442371308804e-01 
  4.716484248638e-02   2.735578641295e-02  -1.442371308804e-01   0.000000000000e+00  -3.461397066712e-02  -1.832042485476e-01   0.000000000000e+00  -3.461397066712e-02  -1.832042485476e-01 
  4.048039764166e-02  -7.422596216202e-02  -1.674508750439e-01   2.555710263550e-02   2.276715263724e-02  -1.632977575064e-01   1.294433474541e-01   6.788026541471e-02  -1.641650497913e-01 
  1.480091214180e-01   2.304554358125e-02  -1.612272411585e-01   1.384240686893e-01  -4.913480207324e-02  -1.808534115553e-01   9.158201515675e-02  -4.316440969706e-02  -1.415950655937e-01 
  9.641428291798e-02  -5.198906175792e-03  -1.372598558664e-01   9.641428291798e-02  -5.198906175792e-03  -1.372598558664e-01   0.000000000000e+00  -6.496842950583e-02  -1.967379897833e-01 
  0.000000000000e+00  -6.496842950583e-02  -1.967379897833e-01  -3.799168393016e-02  -8.701896667480e-02  -2.045424133539e-01   4.874594137073e-02  -2.300800057128e-03  -1.589501947165e-01 
  1.143305599689e-01   2.482604235411e-02  -1.607210040092e-01   1.327813416719e-01   3.031088411808e-02  -1.365404874086e-01   1.032861620188e-01   7.734053581953e-02  -1.454163491726e-01 
  1.485473066568e-01   1.221537031233e-02  -1.553849130869e-01   1.893471330404e-01  -1.588787068613e-03  -1.900465339422e-01   1.893471330404e-01  -1.588787068613e-03  -1.900465339422e-01 
  0.000000000000e+00   0.000000000000e+00  -1.514207869768e-01   0.000000000000e+00   0.000000000000e+00  -1.514207869768e-01  -5.076684057713e-02   0.000000000000e+00  -1.663223952055e-01 
  2.911049500108e-02   0.000000000000e+00  -1.599804908037e-01   6.499846279621e-02   0.000000000000e+00  -1.878954172134e-01   1.258133351803e-01   0.000000000000e+00  -1.293239444494e-01 
  1.027549952269e-01   0.000000000000e+00  -1.239622831345e-01   1.807635277510e-01   0.000000000000e+00  -1.234321668744e-01   3.040543794632e-01   0.000000000000e+00  -1.297895759344e-01 
  3.040543794632e-01   0.000000000000e+00  -1.297895759344e-01   0.000000000000e+00   0.000000000000e+00  -1.514207869768e-01   0.000000000000e+00   0.000000000000e+00  -1.514207869768e-01 
 -5.076684057713e-02   0.000000000000e+00  -1.663223952055e-01   2.911049500108e-02   0.000000000000e+00  -1.599804908037e-01   6.499846279621e-02   0.000000000000e+00  -1.878954172134e-01 
  1.258133351803e-01   0.000000000000e+00  -1.293239444494e-01   1.027549952269e-01   0.000000000000e+00  -1.239622831345e-01   1.807635277510e-01   0.000000000000e+00  -1.234321668744e-01 
  3.040543794632e-01   0.000000000000e+00  -1.297895759344e-01   3.040543794632e-01   0.000000000000e+00  -1.297895759344e-01   0.000000000000e+00  -7.468711584806e-02  -1.485282301903e+00 
  0.000000000000e+00  -7.468711584806e-02  -1.485282301903e+00  -6.187226623297e-02  -1.204788833857e-01  -1.245285630226e+00   3.562621176243e-01  -2.139973789454e-01  -7.428075671196e-01 
  2.898109257221e-01  -1.561078876257e-01  -1.780077666044e-01   3.378880620003e-01  -6.245156750083e-02  -3.740625381470e-01   1.918715596199e+00   5.209862440825e-02  -4.590817093849e-01 
 -7.438378930092e-01   2.865050360560e-02  -4.723049998283e-01  -4.868635535240e-01   2.023866958916e-02  -3.451132774353e-01  -4.868635535240e-01   2.023866958916e-02  -3.451132774353e-01 
  0.000000000000e+00  -7.468711584806e-02  -1.485282301903e+00   0.000000000000e+00  -7.468711584806e-02  -1.485282301903e+00  -6.187226623297e-02  -1.204788833857e-01  -1.245285630226e+00 
  3.562621176243e-01  -2.139973789454e-01  -7.428075671196e-01   2.898109257221e-01  -1.561078876257e-01  -1.780077666044e-01   3.378880620003e-01  -6.245156750083e-02  -3.740625381470e-01 
  1.918715596199e+00   5.209862440825e-02  -4.590817093849e-01  -7.438378930092e-01   2.865050360560e-02  -4.723049998283e-01  -4.868635535240e-01   2.023866958916e-02  -3.451132774353e-01 
 -4.868635535240e-01   2.023866958916e-02  -3.451132774353e-01   0.000000000000e+00   5.935237929225e-02  -1.203172206879e+00   0.000000000000e+00   5.935237929225e-02  -1.203172206879e+00 
  2.453463710845e-02  -2.322576493025e-01  -1.014248728752e+00   3.856649100780e-01  -1.481435149908e-01  -7.926919460297e-01   4.361335635185e-01  -1.264175623655e-01  -5.455082654953e-01 
  2.007601261139e-01  -8.839989453554e-02  -1.516743004322e-01  -5.819214507937e-02   9.007481485605e-02  -5.868643522263e-01   2.857903577387e-02   2.856248617172e-01  -3.988168239594e-01 
 -1.081527918577e-01   6.752949953079e-02  -3.898743391037e-01  -1.081527918577e-01   6.752949953079e-02  -3.898743391037e-01   0.000000000000e+00   4.752454906702e-02  -4.863578677177e-01 
  0.000000000000e+00   4.752454906702e-02  -4.863578677177e-01   2.435948699713e-01   5.344774201512e-02  -6.127976775169e-01   3.382574021816e-01  -6.454917788506e-02  -1.006705403328e+00 
  4.104121625423e-01  -3.951559960842e-02  -8.888880610466e-01   8.786073327065e-02  -7.370143383741e-02  -5.811496376991e-01  -5.541785359383e-01  -1.020822674036e-01  -5.462168455124e-01 
 -7.605618834496e-01  -1.342946663499e-02  -6.017731428146e-01   8.686052262783e-02  -4.223926737905e-02  -6.142487376928e-02   8.686052262783e-02  -4.223926737905e-02  -6.142487376928e-02 
  0.000000000000e+00   9.270182810724e-03  -9.311148524284e-01   0.000000000000e+00   9.270182810724e-03  -9.311148524284e-01   1.715745776892e-01   5.970877781510e-02  -6.140068769455e-01 
  2.145974189043e-01   4.451026022434e-02  -9.107067584991e-01   5.428856015205e-01   6.772814085707e-04  -4.699751734734e-01  -1.063275267370e-04  -1.055195648223e-02  -6.139831542969e-01 
 -1.227339148521e+00  -1.324024349451e-01  -7.408855557442e-01  -2.493037223816e+00  -6.831626594067e-02  -7.376061677933e-01   9.643733501434e-02  -1.014055684209e-01  -8.116471171379e-01 
  9.643733501434e-02  -1.014055684209e-01  -8.116471171379e-01   0.000000000000e+00  -7.578929513693e-02  -8.501909375191e-01   0.000000000000e+00  -7.578929513693e-02  -8.501909375191e-01 
  2.429379969835e-01  -8.877886086702e-02  -6.343899369240e-01   1.363193839788e-01   1.034569740295e-01  -8.508836030960e-01   1.758905202150e-01  -2.560692606494e-03  -4.493373334408e-01 
  5.971168279648e-01   2.061158716679e-01  -5.674491524696e-01   1.585663676262e+00   1.178428158164e-01  -4.587874412537e-01   1.796935349703e-01   2.258746325970e-02  -9.219691157341e-01 
  5.137469246984e-02   2.335253916681e-02  -8.923193812370e-01   5.137469246984e-02   2.335253916681e-02  -8.923193812370e-01   0.000000000000e+00   5.704360082746e-03  -8.260291814804e-01 
  0.000000000000e+00   5.704360082746e-03  -8.260291814804e-01   1.805242002010e-01   2.157350629568e-01  -1.032266259193e+00   3.558875024319e-01   2.497051656246e-02  -1.024130582809e+00 
  5.309724807739e-01  -8.681689947844e-02  -8.065271973610e-01   2.565222559497e-03  -1.227593943477e-01  -9.889565706253e-01   1.541648874991e-03  -1.648736558855e-02   7.665857672691e-02 
 -6.593856215477e-01  -2.319193631411e-02   5.123578310013e-01   0.000000000000e+00  -7.552540861070e-03  -6.274013966322e-02   0.000000000000e+00  -7.552540861070e-03  -6.274013966322e-02 
  0.000000000000e+00   2.929179742932e-02  -5.619639158249e-01   0.000000000000e+00   2.929179742932e-02  -5.619639158249e-01   2.322317063808e-01   1.783152669668e-01  -1.195507645607e+00 
  7.742875814438e-01   4.549987241626e-02  -1.329600453377e+00   4.130000174046e-01  -1.155328154564e-01  -1.174950242043e+00   6.620949506760e-01   5.311407148838e-02  -1.026195526123e+00 
  6.925131082535e-01   1.112299039960e-01   2.092729695141e-02  -2.732664346695e-01   3.738801926374e-02   5.261477231979e-01   1.535290330648e-01   3.486701520160e-03  -9.953458793461e-03 
  1.535290330648e-01   3.486701520160e-03  -9.953458793461e-03   0.000000000000e+00   0.000000000000e+00  -4.674516022205e-01   0.000000000000e+00   0.000000000000e+00  -4.674516022205e-01 
  1.477014124393e-01   2.105598337948e-02  -7.677788138390e-01   5.292562246323e-01   0.000000000000e+00  -2.056278705597e+00   5.167484879494e-01   0.000000000000e+00  -1.578139185905e+00 
  1.213608145714e+00   0.000000000000e+00  -1.145754009485e-01   1.204151868820e+00   7.883041398600e-04  -3.937600553036e-02   4.155445396900e-01   8.352504810318e-04  -7.656783610582e-02 
  3.058580458164e-01   4.092014569324e-05  -7.021041959524e-02   3.058580458164e-01   4.092014569324e-05  -7.021041959524e-02   0.000000000000e+00   0.000000000000e+00  -4.674516022205e-01 
  0.000000000000e+00   0.000000000000e+00  -4.674516022205e-01   1.477014124393e-01   2.105598337948e-02  -7.677788138390e-01   5.292562246323e-01   0.000000000000e+00  -2.056278705597e+00 
  5.167484879494e-01   0.000000000000e+00  -1.578139185905e+00   1.213608145714e+00   0.000000000000e+00  -1.145754009485e-01   1.204151868820e+00   7.883041398600e-04  -3.937600553036e-02 
  4.155445396900e-01   8.352504810318e-04  -7.656783610582e-02   3.058580458164e-01   4.092014569324e-05  -7.021041959524e-02   3.058580458164e-01   4.092014569324e-05  -7.021041959524e-02 
  0.000000000000e+00   9.879735857248e-02  -4.640862345695e-01   0.000000000000e+00   9.879735857248e-02  -4.640862345695e-01   4.414344951510e-02   3.631820436567e-03  -7.160379886627e-01 
  1.359968930483e-01  -5.356230214238e-02  -5.865861177444e-01   8.649161458015e-01  -7.681635022163e-02  -3.388960063457e-01   0.000000000000e+00  -9.371245652437e-02   1.332746744156e-01 
  0.000000000000e+00   8.844479918480e-02  -1.000000014901e-01  -6.153507232666e-01   1.571376770735e-01  -3.139027953148e-01  -6.153507232666e-01   6.838802993298e-02  -4.423899650574e-01 
 -6.153507232666e-01   6.838802993298e-02  -4.423899650574e-01   0.000000000000e+00   9.879735857248e-02  -4.640862345695e-01   0.000000000000e+00   9.879735857248e-02  -4.640862345695e-01 
  4.414344951510e-02   3.631820436567e-03  -7.160379886627e-01   1.359968930483e-01  -5.356230214238e-02  -5.865861177444e-01   8.649161458015e-01  -7.681635022163e-02  -3.388960063457e-01 
  0.000000000000e+00  -9.371245652437e-02   1.332746744156e-01   0.000000000000e+00   8.844479918480e-02  -1.000000014901e-01  -6.153507232666e-01   1.571376770735e-01  -3.139027953148e-01 
 -6.153507232666e-01   6.838802993298e-02  -4.423899650574e-01  -6.153507232666e-01   6.838802993298e-02  -4.423899650574e-01   0.000000000000e+00  -1.720350086689e-01  -2.772330939770e-01 
  0.000000000000e+00  -1.720350086689e-01  -2.772330939770e-01   9.566039592028e-02  -9.102273732424e-02  -6.885436177254e-01   2.248877137899e-01  -3.604264929891e-02  -4.162514805794e-01 
  1.498793005943e+00  -8.078841865063e-02  -4.550566673279e-01   5.877861380577e-01  -8.534612506628e-02  -3.362287580967e-01  -1.421621143818e-01   1.075707599521e-01  -5.639185309410e-01 
 -5.407549813390e-02   1.571376770735e-01  -4.423899650574e-01  -2.324834465981e-01   9.146352857351e-02  -4.094519615173e-01  -2.324834465981e-01   9.146352857351e-02  -4.094519615173e-01 
  0.000000000000e+00  -8.457634598017e-02  -4.315752983093e-01   0.000000000000e+00  -8.457634598017e-02  -4.315752983093e-01   1.264586895704e-01  -9.327771142125e-03  -4.767698049545e-01 
  2.797662913799e-01  -6.530280411243e-02  -5.822122097015e-01  -6.244566440582e-01  -4.801499471068e-02  -4.148323535919e-01  -1.031428098679e+00  -4.846957698464e-02  -5.848346352577e-01 
 -1.060288071632e+00   4.523088783026e-02  -6.052641272545e-01  -1.166328549385e+00   2.978218719363e-02  -6.102914810181e-01  -1.382347196341e-01  -1.639015041292e-02  -1.105066090822e-01 
 -1.382347196341e-01  -1.639015041292e-02  -1.105066090822e-01   0.000000000000e+00   7.809422165155e-02  -5.028555393219e-01   0.000000000000e+00   7.809422165155e-02  -5.028555393219e-01 
  5.763048678637e-02   1.036896854639e-01  -3.303358256817e-01   2.103659361601e-01   1.386415958405e-01  -3.398861587048e-01   2.187355011702e-01   1.190651953220e-02  -7.403182983398e-02 
 -1.905180692673e+00   2.211958868429e-03  -6.652873754501e-01  -1.342039942741e+00   6.296891719103e-02  -6.847806572914e-01  -1.992432832718e+00  -3.765740990639e-02  -6.436125040054e-01 
 -5.118796825409e-01  -8.047753572464e-02  -1.000000014901e-01  -5.118796825409e-01  -8.047753572464e-02  -1.000000014901e-01   0.000000000000e+00   2.245072089136e-02  -2.600179016590e-01 
  0.000000000000e+00   2.245072089136e-02  -2.600179016590e-01  -5.635254457593e-02  -4.703520983458e-02  -3.801241815090e-01   1.274160146713e-01   3.645209223032e-02  -4.859307706356e-01 
  3.067644871771e-02  -1.948633193970e-01  -3.842647075653e-01  -2.944867014885e-01   5.626275669783e-03  -8.860829472542e-01   7.095002532005e-01   8.912718296051e-02  -6.418891549110e-01 
  3.107265233994e-01   5.249338597059e-02  -6.431682705879e-01   1.041704341769e-01   3.178029134870e-02  -7.671021819115e-01   1.041704341769e-01   3.178029134870e-02  -7.671021819115e-01 
  0.000000000000e+00   1.435097604990e-01  -2.618597745895e-01   0.000000000000e+00   1.435097604990e-01  -2.618597745895e-01   7.585310190916e-02   2.967416942120e-01  -3.929559886456e-01 
  1.185126602650e-01   4.854781553149e-02  -5.312991738319e-01   5.105288624763e-01  -1.947366446257e-02  -5.135661363602e-01   4.919818416238e-02  -2.365608699620e-02  -7.635023593903e-01 
  8.350390009582e-03   1.056602522731e-01  -5.964670181274e-01   7.056076079607e-02   5.039340257645e-02  -2.060355842113e-01   0.000000000000e+00   1.593214459717e-02  -1.000000014901e-01 
  0.000000000000e+00   1.593214459717e-02  -1.000000014901e-01   0.000000000000e+00  -1.090751308948e-02  -3.409487903118e-01   0.000000000000e+00  -1.090751308948e-02  -3.409487903118e-01 
  1.740383654833e-01   1.077923029661e-01  -2.139609903097e-01   4.195732474327e-01  -1.332720089704e-02   8.595893532038e-02   4.408171772957e-01   1.521426253021e-03   6.949678063393e-02 
  3.508107960224e-01   3.319289162755e-02  -1.082051515579e+00  -1.338742673397e-01   2.675360068679e-02  -1.806921839714e+00   1.472410839051e-02   2.882847003639e-02  -1.381129503250e+00 
  6.157455593348e-02   1.615265384316e-02  -4.794523715973e-01   6.157455593348e-02   1.615265384316e-02  -4.794523715973e-01   0.000000000000e+00   0.000000000000e+00  -3.259089887142e-01 
  0.000000000000e+00   0.000000000000e+00  -3.259089887142e-01   2.635610401630e-01   0.000000000000e+00  -2.382071912289e-01   3.850400745869e-01   0.000000000000e+00   9.750471711159e-01 
  3.994592726231e-01   4.905294190394e-05  -6.000789403915e-01   6.618663668633e-01   8.103240397759e-04  -7.975723594427e-02   2.250559180975e-01   0.000000000000e+00  -1.139568686485e+00 
  3.711550831795e-01   8.346273563802e-03  -7.651858925819e-01   1.952607929707e-01   4.971615504473e-03  -2.346362471581e-01   1.952607929707e-01   4.971615504473e-03  -2.346362471581e-01 
  0.000000000000e+00   0.000000000000e+00  -3.259089887142e-01   0.000000000000e+00   0.000000000000e+00  -3.259089887142e-01   2.635610401630e-01   0.000000000000e+00  -2.382071912289e-01 
  3.850400745869e-01   0.000000000000e+00   9.750471711159e-01   3.994592726231e-01   4.905294190394e-05  -6.000789403915e-01   6.618663668633e-01   8.103240397759e-04  -7.975723594427e-02 
  2.250559180975e-01   0.000000000000e+00  -1.139568686485e+00   3.711550831795e-01   8.346273563802e-03  -7.651858925819e-01   1.952607929707e-01   4.971615504473e-03  -2.346362471581e-01 
  1.952607929707e-01   4.971615504473e-03  -2.346362471581e-01   0.000000000000e+00   1.189108192921e-01  -1.733151376247e-01   0.000000000000e+00   1.189108192921e-01  -1.733151376247e-01 
  2.161537855864e-02  -6.102586910129e-02  -2.910574674606e-01   3.996758759022e-01  -9.128489345312e-02  -6.771109104156e-01   1.042926073074e+00  -3.585507720709e-02  -1.564062952995e+00 
  1.580556511879e+00  -2.221537753940e-02  -1.000000014901e-01   0.000000000000e+00   1.693257130682e-02  -1.000000014901e-01  -6.003483757377e-02   0.000000000000e+00  -1.000000014901e-01 
  0.000000000000e+00   5.314861238003e-02  -1.000000014901e-01   0.000000000000e+00   5.314861238003e-02  -1.000000014901e-01   0.000000000000e+00   1.189108192921e-01  -1.733151376247e-01 
  0.000000000000e+00   1.189108192921e-01  -1.733151376247e-01   2.161537855864e-02  -6.102586910129e-02  -2.910574674606e-01   3.996758759022e-01  -9.128489345312e-02  -6.771109104156e-01 
  1.042926073074e+00  -3.585507720709e-02  -1.564062952995e+00   1.580556511879e+00  -2.221537753940e-02  -1.000000014901e-01   0.000000000000e+00   1.693257130682e-02  -1.000000014901e-01 
 -6.003483757377e-02   0.000000000000e+00  -1.000000014901e-01   0.000000000000e+00   5.314861238003e-02  -1.000000014901e-01   0.000000000000e+00   5.314861238003e-02  -1.000000014901e-01 
  0.000000000000e+00   7.124920934439e-02  -5.592013597488e-01   0.000000000000e+00   7.124920934439e-02  -5.592013597488e-01   4.750795289874e-02  -2.851141802967e-02  -5.938418507576e-01 
 -7.382487654686e-01  -5.872843042016e-02  -7.365635037422e-01  -1.149163246155e+00  -5.732499435544e-02  -6.388268470764e-01  -8.272802233696e-01  -3.095549345016e-02  -3.867359459400e-01 
 -1.752686053514e-01   3.314284980297e-02  -1.000000014901e-01  -1.711261123419e-01   2.693777717650e-02  -3.573332428932e-01  -7.067633420229e-02   9.081977605820e-02  -3.886422812939e-01 
 -7.067633420229e-02   9.081977605820e-02  -3.886422812939e-01   0.000000000000e+00   1.081578060985e-01  -4.834123551846e-01   0.000000000000e+00   1.081578060985e-01  -4.834123551846e-01 
  2.577911503613e-02  -3.547778427601e-01  -4.487459063530e-01  -1.631176233292e+00  -6.907997131348e-01  -9.265639781952e-01  -1.750157117844e+00  -4.698503315449e-01  -6.483510732651e-01 
 -1.087792754173e+00   8.368334919214e-02  -4.569541513920e-01  -1.763227880001e-01   9.659819304943e-02  -1.000000014901e-01  -1.763227880001e-01   5.366082489491e-02  -1.000000014901e-01 
  0.000000000000e+00   3.572229295969e-02  -1.000000014901e-01   0.000000000000e+00   3.572229295969e-02  -1.000000014901e-01   0.000000000000e+00   1.618681550026e-01  -2.975538372993e-01 
  0.000000000000e+00   1.618681550026e-01  -2.975538372993e-01   1.296769082546e-02  -2.970011532307e-01  -3.351834714413e-01  -6.073153614998e-01  -7.820575237274e-01  -2.779666483402e-01 
 -4.092683196068e-01  -3.850739300251e-01  -1.610415875912e-01  -4.140617549419e-01   6.103229522705e-02  -4.930887818336e-01  -5.328140407801e-02   1.233854293823e-01  -1.000000014901e-01 
 -6.387039273977e-02   6.633652746677e-02  -3.557013869286e-01  -2.810936607420e-02   3.991289064288e-02  -1.969410628080e-01  -2.810936607420e-02   3.991289064288e-02  -1.969410628080e-01 
  0.000000000000e+00   3.836844861507e-02  -4.396091401577e-01   0.000000000000e+00   3.836844861507e-02  -4.396091401577e-01   7.584106177092e-02   2.351482212543e-02  -5.602720379829e-01 
  1.232392117381e-01  -2.800785303116e-01  -4.229429066181e-01   7.754125446081e-02  -2.014176249504e-01  -1.272541135550e-01  -2.232533991337e-01  -2.595569379628e-02  -5.453848242760e-01 
 -2.007108181715e-02   1.441353373230e-02  -7.472680807114e-01   4.045876488090e-02   1.264125201851e-02  -6.780945658684e-01   1.441708207130e-01   4.234880208969e-02  -6.755266785622e-01 