# vtk DataFile Version 2.0
Written using VisIt writer
ASCII
DATASET RECTILINEAR_GRID
DIMENSIONS 10 10 10
X_COORDINATES 10 float
  0.000000000000e+00   5.000000000000e-01   1.000000000000e+00   1.500000000000e+00   2.000000000000e+00   2.500000000000e+00   3.000000000000e+00   3.500000000000e+00   4.000000000000e+00 
  4.500000000000e+00 
Y_COORDINATES 10 float
  0.000000000000e+00   5.000000000000e-01   1.000000000000e+00   1.500000000000e+00   2.000000000000e+00   2.500000000000e+00   3.000000000000e+00   3.500000000000e+00   4.000000000000e+00 
  4.500000000000e+00 
Z_COORDINATES 10 float
  0.000000000000e+00   5.000000000000e-01   1.000000000000e+00   1.500000000000e+00   2.000000000000e+00   2.500000000000e+00   3.000000000000e+00   3.500000000000e+00   4.000000000000e+00 
  4.500000000000e+00 
CELL_DATA 729
POINT_DATA 1000
VECTORS velocity float
  0.000000000000e+00  -1.339250057936e-01  -2.377902567387e-01   3.251200000000e+04   0.000000000000e+00   0.000000000000e+00   0.000000000000e+00   0.000000000000e+00   0.000000000000e+00 
  1.176406294107e-01  -9.598496556282e-02  -1.836495101452e-01   0.000000000000e+00   0.000000000000e+00   0.000000000000e+00   0.000000000000e+00   1.431655808000e+09   1.070945600000e+09 
 -4.845263808966e-02  -9.078732132912e-02  -1.636681109667e-01   1.071994176000e+09   0.000000000000e+00   0.000000000000e+00   0.000000000000e+00   0.000000000000e+00   0.000000000000e+00 
  8.100674301386e-02  -1.699862331152e-01  -1.830599009991e-01   0.000000000000e+00  -1.339250057936e-01  -2.377902567387e-01   1.070945600000e+09   0.000000000000e+00   0.000000000000e+00 
  1.746988296509e-02  -1.288980543613e-01  -2.249742597342e-01   1.176406294107e-01  -9.598496556282e-02  -1.836495101452e-01   1.431655808000e+09   1.070945600000e+09   0.000000000000e+00 
  4.523120075464e-02  -5.584958940744e-02  -1.409373581409e-01  -4.845263808966e-02  -9.078732132912e-02  -1.636681109667e-01   0.000000000000e+00   0.000000000000e+00   1.071644672000e+09 
  8.100674301386e-02  -1.699862331152e-01  -1.830599009991e-01   8.100674301386e-02  -1.699862331152e-01  -1.830599009991e-01   0.000000000000e+00   3.481734171510e-02  -2.061925679445e-01 
  0.000000000000e+00   3.481734171510e-02  -2.061925679445e-01  -2.426326740533e-03  -1.303746253252e-01  -2.156038880348e-01   1.017108187079e-01  -2.525964081287e-01  -2.067588865757e-01 
  1.128017902374e-01  -1.642121672630e-01  -1.937525570393e-01   5.239083245397e-02  -4.151646420360e-02  -1.457244008780e-01   3.758197277784e-02  -1.626295410097e-02  -1.414565145969e-01 
  3.894198313355e-02  -1.327362749726e-02  -1.353735178709e-01   1.145929470658e-01   2.463090233505e-02  -1.429625451565e-01   1.145929470658e-01   2.463090233505e-02  -1.429625451565e-01 
  0.000000000000e+00   1.013403013349e-02  -1.943362057209e-01   0.000000000000e+00   1.013403013349e-02  -1.943362057209e-01   1.187138855457e-01  -1.430081762373e-02  -1.838598400354e-01 
  5.136856436729e-02   1.257345080376e-02  -1.661042720079e-01   4.483047500253e-02  -7.527793198824e-02  -1.670242547989e-01   7.430051267147e-02  -1.411976814270e-01  -1.587327867746e-01 
  6.103511154652e-02  -1.142686307430e-01  -1.869578361511e-01   1.731728315353e-01  -9.543582051992e-02  -1.407592594624e-01   1.069594323635e-01  -6.276874989271e-02  -1.426406204700e-01 
  1.069594323635e-01  -6.276874989271e-02  -1.426406204700e-01   0.000000000000e+00   8.043853449635e-04  -2.226768434048e-01   0.000000000000e+00   8.043853449635e-04  -2.226768434048e-01 
 -7.286245375872e-02  -7.141844183207e-02  -2.386716753244e-01   6.558721885085e-03  -8.075275458395e-03  -1.806856989861e-01   5.286820232868e-02  -6.742123514414e-02  -1.623869538307e-01 
  1.118045020849e-02  -6.650487333536e-02  -1.519700437784e-01   3.060250915587e-02  -1.529467175715e-03  -1.644026637077e-01   1.199912577868e-01  -4.405585303903e-02  -1.593703478575e-01 
  4.557199776173e-02  -1.496862471104e-01  -1.939979493618e-01   4.557199776173e-02  -1.496862471104e-01  -1.939979493618e-01   0.000000000000e+00  -5.869867280126e-03  -1.942816823721e-01 
  0.000000000000e+00  -5.869867280126e-03  -1.942816823721e-01  -1.289273053408e-02  -1.576410420239e-02  -1.940511465073e-01   1.062872111797e-01   2.385955117643e-02  -1.944110542536e-01 
  1.265284866095e-01  -2.784236334264e-02  -2.224269807339e-01   1.163766458631e-01   5.138437822461e-02  -1.466069668531e-01   2.959951758385e-03  -2.562225423753e-02  -1.460034549236e-01 
 -4.034685716033e-02  -1.411508861929e-02  -1.437208503485e-01  -5.630957335234e-02  -1.073430292308e-02  -1.676397919655e-01  -5.630957335234e-02  -1.073430292308e-02  -1.676397919655e-01 
  0.000000000000e+00  -1.715535670519e-02  -1.997925937176e-01   0.000000000000e+00  -1.715535670519e-02  -1.997925937176e-01   3.526078164577e-02  -5.713168904185e-02  -1.738564223051e-01 
  6.409928202629e-02   6.101065129042e-02  -1.544548720121e-01   8.885893970728e-02   5.674932152033e-02  -1.600794643164e-01   1.762474924326e-01   6.785856187344e-02  -1.620005518198e-01 
  8.870949596167e-02  -3.154738619924e-02  -1.852534264326e-01   8.607365936041e-02  -1.967709138989e-02  -1.455453932285e-01   8.576860278845e-02   6.983667612076e-02  -1.549191325903e-01 
  8.576860278845e-02   6.983667612076e-02  -1.549191325903e-01   0.000000000000e+00  -3.590513020754e-02  -2.283354103565e-01   0.000000000000e+00  -3.590513020754e-02  -2.283354103565e-01 
  1.167926378548e-02  -9.542023390532e-02  -2.256211042404e-01   1.154556125402e-01   6.785950623453e-03  -1.635499596596e-01   6.852251291275e-02   1.665086299181e-02  -1.514114290476e-01 
  1.709856837988e-01   7.459119427949e-03  -1.344178020954e-01   4.244159162045e-02   5.140233412385e-02  -1.511681824923e-01   9.903742372990e-02   1.959977298975e-02  -1.595032513142e-01 
  2.207903563976e-01  -5.075674131513e-02  -1.961745023727e-01   2.207903563976e-01  -5.075674131513e-02  -1.961745023727e-01   0.000000000000e+00   0.000000000000e+00  -1.894950270653e-01 
  0.000000000000e+00   0.000000000000e+00  -1.894950270653e-01  -2.848073607311e-03   0.000000000000e+00  -1.925868093967e-01   5.750996991992e-02   0.000000000000e+00  -1.640047878027e-01 
 -1.719112843275e-01   0.000000000000e+00  -1.996718943119e-01   1.969411969185e-01   0.000000000000e+00  -1.224229484797e-01   1.461870819330e-01   0.000000000000e+00  -1.240955591202e-01 
  1.338573694229e-01   0.000000000000e+00  -1.272298842669e-01   3.464030623436e-01   0.000000000000e+00  -1.252748817205e-01   3.464030623436e-01   0.000000000000e+00  -1.252748817205e-01 
  0.000000000000e+00   0.000000000000e+00  -1.894950270653e-01   0.000000000000e+00   0.000000000000e+00  -1.894950270653e-01  -2.848073607311e-03   0.000000000000e+00  -1.925868093967e-01 
  5.750996991992e-02   0.000000000000e+00  -1.640047878027e-01  -1.719112843275e-01   0.000000000000e+00  -1.996718943119e-01   1.969411969185e-01   0.000000000000e+00  -1.224229484797e-01 
  1.461870819330e-01   0.000000000000e+00  -1.240955591202e-01   1.338573694229e-01   0.000000000000e+00  -1.272298842669e-01   3.464030623436e-01   0.000000000000e+00  -1.252748817205e-01 
  3.464030623436e-01   0.000000000000e+00  -1.252748817205e-01   0.000000000000e+00  -1.339250057936e-01  -2.377902567387e-01   0.000000000000e+00  -1.339250057936e-01  -2.377902567387e-01 
  1.746988296509e-02  -1.288980543613e-01  -2.249742597342e-01   1.176406294107e-01  -9.598496556282e-02  -1.836495101452e-01   1.194610372186e-01  -6.284163147211e-02  -1.613993942738e-01 
  4.523120075464e-02  -5.584958940744e-02  -1.409373581409e-01  -4.845263808966e-02  -9.078732132912e-02  -1.636681109667e-01   1.952860131860e-02  -1.075816303492e-01  -1.668093204498e-01 
  8.100674301386e-02  -1.699862331152e-01  -1.830599009991e-01   8.100674301386e-02  -1.699862331152e-01  -1.830599009991e-01   0.000000000000e+00  -1.339250057936e-01  -2.377902567387e-01 
  0.000000000000e+00  -1.339250057936e-01  -2.377902567387e-01   1.746988296509e-02  -1.288980543613e-01  -2.249742597342e-01   1.176406294107e-01  -9.598496556282e-02  -1.836495101452e-01 
  1.194610372186e-01  -6.284163147211e-02  -1.613993942738e-01   4.523120075464e-02  -5.584958940744e-02  -1.409373581409e-01  -4.845263808966e-02  -9.078732132912e-02  -1.636681109667e-01 
  1.952860131860e-02  -1.075816303492e-01  -1.668093204498e-01   8.100674301386e-02  -1.699862331152e-01  -1.830599009991e-01   8.100674301386e-02  -1.699862331152e-01  -1.830599009991e-01 
  0.000000000000e+00   3.481734171510e-02  -2.061925679445e-01   0.000000000000e+00   3.481734171510e-02  -2.061925679445e-01  -2.426326740533e-03  -1.303746253252e-01  -2.156038880348e-01 
  1.017108187079e-01  -2.525964081287e-01  -2.067588865757e-01   1.128017902374e-01  -1.642121672630e-01  -1.937525570393e-01   5.239083245397e-02  -4.151646420360e-02  -1.457244008780e-01 
  3.758197277784e-02  -1.626295410097e-02  -1.414565145969e-01   3.894198313355e-02  -1.327362749726e-02  -1.353735178709e-01   1.145929470658e-01   2.463090233505e-02  -1.429625451565e-01 
  1.145929470658e-01   2.463090233505e-02  -1.429625451565e-01   0.000000000000e+00   1.013403013349e-02  -1.943362057209e-01   0.000000000000e+00   1.013403013349e-02  -1.943362057209e-01 
  1.187138855457e-01  -1.430081762373e-02  -1.838598400354e-01   5.136856436729e-02   1.257345080376e-02  -1.661042720079e-01   4.483047500253e-02  -7.527793198824e-02  -1.670242547989e-01 
  7.430051267147e-02  -1.411976814270e-01  -1.587327867746e-01   6.103511154652e-02  -1.142686307430e-01  -1.869578361511e-01   1.731728315353e-01  -9.543582051992e-02  -1.407592594624e-01 
  1.069594323635e-01  -6.276874989271e-02  -1.426406204700e-01   1.069594323635e-01  -6.276874989271e-02  -1.426406204700e-01   0.000000000000e+00   8.043853449635e-04  -2.226768434048e-01 
  0.000000000000e+00   8.043853449635e-04  -2.226768434048e-01  -7.286245375872e-02  -7.141844183207e-02  -2.386716753244e-01   6.558721885085e-03  -8.075275458395e-03  -1.806856989861e-01 
  5.286820232868e-02  -6.742123514414e-02  -1.623869538307e-01   1.118045020849e-02  -6.650487333536e-02  -1.519700437784e-01   3.060250915587e-02  -1.529467175715e-03  -1.644026637077e-01 
  1.199912577868e-01  -4.405585303903e-02  -1.593703478575e-01   4.557199776173e-02  -1.496862471104e-01  -1.939979493618e-01   4.557199776173e-02  -1.496862471104e-01  -1.939979493618e-01 
  0.000000000000e+00  -5.869867280126e-03  -1.942816823721e-01   0.000000000000e+00  -5.869867280126e-03  -1.942816823721e-01  -1.289273053408e-02  -1.576410420239e-02  -1.940511465073e-01 
  1.062872111797e-01   2.385955117643e-02  -1.944110542536e-01   1.265284866095e-01  -2.784236334264e-02  -2.224269807339e-01   1.163766458631e-01   5.138437822461e-02  -1.466069668531e-01 
  2.959951758385e-03  -2.562225423753e-02  -1.460034549236e-01  -4.034685716033e-02  -1.411508861929e-02  -1.437208503485e-01  -5.630957335234e-02  -1.073430292308e-02  -1.676397919655e-01 
 -5.630957335234e-02  -1.073430292308e-02  -1.676397919655e-01   0.000000000000e+00  -1.715535670519e-02  -1.997925937176e-01   0.000000000000e+00  -1.715535670519e-02  -1.997925937176e-01 
  3.526078164577e-02  -5.713168904185e-02  -1.738564223051e-01   6.409928202629e-02   6.101065129042e-02  -1.544548720121e-01   8.885893970728e-02   5.674932152033e-02  -1.600794643164e-01 
  1.762474924326e-01   6.785856187344e-02  -1.620005518198e-01   8.870949596167e-02  -3.154738619924e-02  -1.852534264326e-01   8.607365936041e-02  -1.967709138989e-02  -1.455453932285e-01 
  8.576860278845e-02   6.983667612076e-02  -1.549191325903e-01   8.576860278845e-02   6.983667612076e-02  -1.549191325903e-01   0.000000000000e+00  -3.590513020754e-02  -2.283354103565e-01 
  0.000000000000e+00  -3.590513020754e-02  -2.283354103565e-01   1.167926378548e-02  -9.542023390532e-02  -2.256211042404e-01   1.154556125402e-01   6.785950623453e-03  -1.635499596596e-01 
  6.852251291275e-02   1.665086299181e-02  -1.514114290476e-01   1.709856837988e-01   7.459119427949e-03  -1.344178020954e-01   4.244159162045e-02   5.140233412385e-02  -1.511681824923e-01 
  9.903742372990e-02   1.959977298975e-02  -1.595032513142e-01   2.207903563976e-01  -5.075674131513e-02  -1.961745023727e-01   2.207903563976e-01  -5.075674131513e-02  -1.961745023727e-01 
  0.000000000000e+00   0.000000000000e+00  -1.894950270653e-01   0.000000000000e+00   0.000000000000e+00  -1.894950270653e-01  -2.848073607311e-03   0.000000000000e+00  -1.925868093967e-01 
  5.750996991992e-02   0.000000000000e+00  -1.640047878027e-01  -1.719112843275e-01   0.000000000000e+00  -1.996718943119e-01   1.969411969185e-01   0.000000000000e+00  -1.224229484797e-01 
  1.461870819330e-01   0.000000000000e+00  -1.240955591202e-01   1.338573694229e-01   0.000000000000e+00  -1.272298842669e-01   3.464030623436e-01   0.000000000000e+00  -1.252748817205e-01 
  3.464030623436e-01   0.000000000000e+00  -1.252748817205e-01   0.000000000000e+00   0.000000000000e+00  -1.894950270653e-01   0.000000000000e+00   0.000000000000e+00  -1.894950270653e-01 
 -2.848073607311e-03   0.000000000000e+00  -1.925868093967e-01   5.750996991992e-02   0.000000000000e+00  -1.640047878027e-01  -1.719112843275e-01   0.000000000000e+00  -1.996718943119e-01 
  1.969411969185e-01   0.000000000000e+00  -1.224229484797e-01   1.461870819330e-01   0.000000000000e+00  -1.240955591202e-01   1.338573694229e-01   0.000000000000e+00  -1.272298842669e-01 
  3.464030623436e-01   0.000000000000e+00  -1.252748817205e-01   3.464030623436e-01   0.000000000000e+00  -1.252748817205e-01   0.000000000000e+00  -1.321204900742e-01  -7.551667690277e-01 
  0.000000000000e+00  -1.321204900742e-01  -7.551667690277e-01   2.977651357651e-01  -1.727867573500e-01  -1.187877297401e+00   5.716932415962e-01  -1.266752928495e-01  -1.011702418327e+00 
  7.211381793022e-01   9.591171145439e-02  -8.988614678383e-01   1.021230340004e+00   4.955909028649e-02  -4.347912073135e-01   0.000000000000e+00  -1.781175844371e-02  -3.633188456297e-02 
 -8.422403931618e-01  -1.834117770195e-01  -3.319067880511e-02  -8.290601968765e-01  -5.458291620016e-02  -1.694009266794e-02  -8.290601968765e-01  -5.458291620016e-02  -1.694009266794e-02 
  0.000000000000e+00  -1.321204900742e-01  -7.551667690277e-01   0.000000000000e+00  -1.321204900742e-01  -7.551667690277e-01   2.977651357651e-01  -1.727867573500e-01  -1.187877297401e+00 
  5.716932415962e-01  -1.266752928495e-01  -1.011702418327e+00   7.211381793022e-01   9.591171145439e-02  -8.988614678383e-01   1.021230340004e+00   4.955909028649e-02  -4.347912073135e-01 
  0.000000000000e+00  -1.781175844371e-02  -3.633188456297e-02  -8.422403931618e-01  -1.834117770195e-01  -3.319067880511e-02  -8.290601968765e-01  -5.458291620016e-02  -1.694009266794e-02 
 -8.290601968765e-01  -5.458291620016e-02  -1.694009266794e-02   0.000000000000e+00   2.071855515242e-01  -1.142977118492e+00   0.000000000000e+00   2.071855515242e-01  -1.142977118492e+00 
  2.654756903648e-01   6.993967294693e-02  -6.742026209831e-01   2.530533969402e-01   2.284577861428e-02  -7.055219411850e-01   3.522428572178e-01   1.624367535114e-01  -2.784649133682e-01 
  5.128000378609e-01   3.946862369776e-02  -2.966412305832e-01   3.695994243026e-02  -8.513449691236e-03  -5.854349210858e-02   4.787157475948e-02  -1.453968584538e-01  -6.462647765875e-02 
  1.126186847687e-01   2.450236305594e-02  -5.703744664788e-02   1.126186847687e-01   2.450236305594e-02  -5.703744664788e-02   0.000000000000e+00   2.318540122360e-03  -9.951532483101e-01 
  0.000000000000e+00   2.318540122360e-03  -9.951532483101e-01   2.165558040142e-01  -3.296343609691e-02  -8.436709046364e-01   2.669503092766e-01   2.051606476307e-01  -7.665223479271e-01 
  9.369611144066e-01  -4.402387142181e-01  -5.681309103966e-01   1.384273409843e+00  -2.311073243618e-01  -4.129554033279e-01  -7.825926691294e-02  -1.331881582737e-01  -5.001482367516e-01 
  1.012581661344e-01  -9.882448613644e-02  -4.656079709530e-01   8.206686377525e-02  -6.719004362822e-02  -4.860317111015e-01   8.206686377525e-02  -6.719004362822e-02  -4.860317111015e-01 
  0.000000000000e+00   5.385995283723e-02  -1.228147864342e+00   0.000000000000e+00   5.385995283723e-02  -1.228147864342e+00   3.006459772587e-01   1.468878239393e-01  -6.467522382736e-01 
  4.256946146488e-01   1.071040779352e-01  -6.944996714592e-01   3.016687631607e-01  -2.459306418896e-01  -7.354550957680e-01  -3.760656416416e-01  -1.447802782059e-01  -8.430457711220e-01 
 -5.017750263214e-01  -1.572865396738e-01  -7.058389782906e-01   6.345148384571e-02  -8.610907942057e-02  -6.118835210800e-01   1.149026677012e-03  -1.666869074106e-01  -7.363694310188e-01 
  1.149026677012e-03  -1.666869074106e-01  -7.363694310188e-01   0.000000000000e+00   7.576704025269e-02  -1.003397464752e+00   0.000000000000e+00   7.576704025269e-02  -1.003397464752e+00 
  2.000452280045e-01   1.963133513927e-01  -7.321853041649e-01   2.813077270985e-01  -9.101258218288e-02  -9.369858503342e-01   3.420799672604e-01   1.499042510986e-01  -6.731192469597e-01 
  4.576999545097e-01   4.207444190979e-02  -3.364510834217e-01   4.881767183542e-02  -1.671082898974e-02  -3.605596125126e-01   4.467382133007e-01  -9.562074393034e-02  -3.279153704643e-01 
 -5.538149550557e-02  -2.471074014902e-01  -6.939848661423e-01  -5.538149550557e-02  -2.471074014902e-01  -6.939848661423e-01   0.000000000000e+00   1.490992866457e-02  -8.388031721115e-01 
  0.000000000000e+00   1.490992866457e-02  -8.388031721115e-01   2.488974332809e-01   1.356572955847e-01  -5.871956944466e-01   4.408209323883e-01   8.885671198368e-02  -7.092587947845e-01 
  4.854980409145e-01   3.777935802937e-01  -7.698194980621e-01   8.988423347473e-01   3.318415582180e-02  -4.967651665211e-01   1.656899154186e-01  -3.317234292626e-02   4.218408763409e-01 
  1.798928678036e-01   3.544359281659e-02   5.231586098671e-01  -1.450636535883e-01   4.568465054035e-02  -1.313997030258e+00  -1.450636535883e-01   4.568465054035e-02  -1.313997030258e+00 
  0.000000000000e+00  -3.307772055268e-02  -7.408244013786e-01   0.000000000000e+00  -3.307772055268e-02  -7.408244013786e-01  -3.113894350827e-02  -1.286960393190e-01  -7.188174128532e-01 
  4.612849354744e-01   9.546113759279e-02  -1.039318323135e+00   5.249322056770e-01  -1.595522835851e-02  -9.744357466698e-01   1.332331299782e+00   4.919150378555e-03  -8.366303443909e-01 
  8.374836295843e-02  -6.214781897143e-04  -6.087055802345e-01   1.243470311165e-01   5.524415895343e-02  -3.335461318493e-01   7.738276571035e-02   1.399913877249e-01  -3.207862973213e-01 
  7.738276571035e-02   1.399913877249e-01  -3.207862973213e-01   0.000000000000e+00   0.000000000000e+00  -8.788969516754e-01   0.000000000000e+00   0.000000000000e+00  -8.788969516754e-01 
  3.982845544815e-01   0.000000000000e+00  -8.946976661682e-01   6.162292361259e-01   0.000000000000e+00  -9.810252785683e-01   4.694021344185e-01   0.000000000000e+00  -9.456486105919e-01 
  5.472466945648e-01   6.231928273337e-05  -5.940760970116e-01   1.414053291082e-01  -1.445159141440e-04  -7.212064415216e-02   1.326919645071e-01   3.797078505158e-03  -7.277011126280e-02 
  3.068440556526e-01   0.000000000000e+00  -7.472512125969e-02   3.068440556526e-01   0.000000000000e+00  -7.472512125969e-02   0.000000000000e+00   0.000000000000e+00  -8.788969516754e-01 
  0.000000000000e+00   0.000000000000e+00  -8.788969516754e-01   3.982845544815e-01   0.000000000000e+00  -8.946976661682e-01   6.162292361259e-01   0.000000000000e+00  -9.810252785683e-01 
  4.694021344185e-01   0.000000000000e+00  -9.456486105919e-01   5.472466945648e-01   6.231928273337e-05  -5.940760970116e-01   1.414053291082e-01  -1.445159141440e-04  -7.212064415216e-02 
  1.326919645071e-01   3.797078505158e-03  -7.277011126280e-02   3.068440556526e-01   0.000000000000e+00  -7.472512125969e-02   3.068440556526e-01   0.000000000000e+00  -7.472512125969e-02 
  0.000000000000e+00   4.518797248602e-02  -4.051518142223e-01   0.000000000000e+00   4.518797248602e-02  -4.051518142223e-01   1.752437353134e-01  -2.065773308277e-02  -7.457699626684e-02 
  2.926116883755e-01  -1.252297591418e-02   5.631138011813e-02   0.000000000000e+00   1.011556312442e-01  -9.013516306877e-01   0.000000000000e+00  -3.537504747510e-02  -3.423656225204e-01 
  0.000000000000e+00  -1.714284121990e-01  -1.000000014901e-01  -9.064854383469e-01  -2.287136167288e-01   1.739353057928e-03  -8.326668739319e-01  -1.751499772072e-01   3.864862769842e-02 
 -8.326668739319e-01  -1.751499772072e-01   3.864862769842e-02   0.000000000000e+00   4.518797248602e-02  -4.051518142223e-01   0.000000000000e+00   4.518797248602e-02  -4.051518142223e-01 
  1.752437353134e-01  -2.065773308277e-02  -7.457699626684e-02   2.926116883755e-01  -1.252297591418e-02   5.631138011813e-02   0.000000000000e+00   1.011556312442e-01  -9.013516306877e-01 
  0.000000000000e+00  -3.537504747510e-02  -3.423656225204e-01   0.000000000000e+00  -1.714284121990e-01  -1.000000014901e-01  -9.064854383469e-01  -2.287136167288e-01   1.739353057928e-03 
 -8.326668739319e-01  -1.751499772072e-01   3.864862769842e-02  -8.326668739319e-01  -1.751499772072e-01   3.864862769842e-02   0.000000000000e+00   2.136800885201e-01  -7.428692579269e-01 
  0.000000000000e+00   2.136800885201e-01  -7.428692579269e-01   1.093614846468e-01   1.507375575602e-02  -4.087722599506e-01   1.001277267933e-01   1.896002143621e-02  -2.187225222588e-01 
  2.915760576725e-01   1.117104738951e-01  -3.499674201012e-01   1.807607859373e-01  -1.332636028528e-01  -4.304646849632e-01  -4.475362002850e-01  -1.327229440212e-01  -1.518902480602e-01 
 -2.984467744827e-01  -1.548950672150e-01   3.864862769842e-02  -4.806498587132e-01  -1.306379735470e-01  -9.168830700219e-03  -4.806498587132e-01  -1.306379735470e-01  -9.168830700219e-03 
  0.000000000000e+00  -1.163538172841e-01  -1.928489655256e-01   0.000000000000e+00  -1.163538172841e-01  -1.928489655256e-01   1.434763371944e-01  -9.924244135618e-02  -4.833430051804e-01 
  2.681136429310e-01   5.301695317030e-02  -6.902009248734e-01   6.524807810783e-01  -3.442406654358e-01  -6.172125935555e-01  -8.950173258781e-01  -3.189541101456e-01  -6.127501726151e-01 
 -6.124091744423e-01  -5.080693960190e-02  -3.904381394386e-01  -3.437605202198e-01  -1.330999583006e-01  -4.214632511139e-01  -8.468541502953e-02  -9.922157227993e-02  -5.052847862244e-01 
 -8.468541502953e-02  -9.922157227993e-02  -5.052847862244e-01   0.000000000000e+00   4.171679168940e-02  -5.087773799896e-01   0.000000000000e+00   4.171679168940e-02  -5.087773799896e-01 
  1.415405124426e-01   3.121489472687e-02  -2.735708951950e-01   2.573911547661e-01   6.791256368160e-02  -3.422339856625e-01   1.464640256017e-02  -1.372444480658e-01  -4.197695255280e-01 
 -7.530645728111e-01  -3.841112181544e-02  -6.518372297287e-01  -6.150743365288e-01   7.025337964296e-02  -3.097933232784e-01  -4.055838286877e-01   2.778286347166e-03  -3.907377719879e-01 
 -1.646377891302e-01  -1.118087247014e-01  -6.041288971901e-01  -1.646377891302e-01  -1.118087247014e-01  -6.041288971901e-01   0.000000000000e+00   9.691691957414e-03  -3.584846556187e-01 
  0.000000000000e+00   9.691691957414e-03  -3.584846556187e-01   1.633101105690e-01   1.346253454685e-01  -3.128314316273e-01  -4.708286002278e-02   5.507985875010e-02  -2.788621485233e-01 
 -2.723759412766e-01  -1.237397640944e-02  -8.320824056864e-02  -5.549193620682e-01   1.295359730721e-01  -3.647709488869e-01  -5.373292565346e-01   9.792622178793e-02  -7.584448903799e-02 
  4.650521650910e-02  -1.195110846311e-02  -3.220639824867e-01   0.000000000000e+00  -1.206099241972e-01  -5.508506298065e-01   0.000000000000e+00  -1.206099241972e-01  -5.508506298065e-01 
  0.000000000000e+00   2.774911187589e-02  -2.900623083115e-01   0.000000000000e+00   2.774911187589e-02  -2.900623083115e-01   1.602684557438e-01   5.002454668283e-02  -3.459146618843e-01 
  3.491851687431e-01   1.078032255173e-01  -2.914620041847e-01   4.547461867332e-01   1.541541069746e-01  -7.223239541054e-01   2.460437864065e-01   1.487784236670e-01  -6.309401243925e-03 
 -3.668338060379e-02  -4.040523990989e-02   5.578216314316e-01   1.045926362276e-01   2.669340372086e-02  -2.876240313053e-01  -1.181727424264e-01   6.556227058172e-02  -1.617541193962e+00 
 -1.181727424264e-01   6.556227058172e-02  -1.617541193962e+00   0.000000000000e+00   6.479797419161e-03  -5.151963829994e-01   0.000000000000e+00   6.479797419161e-03  -5.151963829994e-01 
 -1.680315658450e-02  -5.727729294449e-04  -4.020465612411e-01   3.634663224220e-01  -4.481018707156e-02  -9.411244392395e-01   5.491483211517e-01   3.513383492827e-02  -1.376585602760e+00 
  7.273293733597e-01   5.150036513805e-02  -1.065547585487e+00   2.337529957294e-01   5.103878211230e-03  -1.763193458319e-01   2.135161012411e-01   2.707150019705e-02  -5.334906578064e-01 
  8.216225542128e-03   6.556227058172e-02  -1.691970348358e+00   8.216225542128e-03   6.556227058172e-02  -1.691970348358e+00   0.000000000000e+00   0.000000000000e+00  -5.085616707802e-01 
  0.000000000000e+00   0.000000000000e+00  -5.085616707802e-01   1.827466785908e-01  -5.072601197753e-05  -2.615003585815e-01   2.963099181652e-01   0.000000000000e+00  -1.069549322128e+00 
  1.731119155884e-01   8.034117519855e-03  -1.175651431084e+00   4.095305502415e-01   1.304944884032e-02  -8.785732388496e-01   3.115304410458e-01   3.728785365820e-02  -1.817615926266e-01 
  2.572677731514e-01   1.589641906321e-02  -1.254700571299e-01   2.415750324726e-01   0.000000000000e+00  -1.000000014901e-01   2.415750324726e-01   0.000000000000e+00  -1.000000014901e-01 
  0.000000000000e+00   0.000000000000e+00  -5.085616707802e-01   0.000000000000e+00   0.000000000000e+00  -5.085616707802e-01   1.827466785908e-01  -5.072601197753e-05  -2.615003585815e-01 
  2.963099181652e-01   0.000000000000e+00  -1.069549322128e+00   1.731119155884e-01   8.034117519855e-03  -1.175651431084e+00   4.095305502415e-01   1.304944884032e-02  -8.785732388496e-01 
  3.115304410458e-01   3.728785365820e-02  -1.817615926266e-01   2.572677731514e-01   1.589641906321e-02  -1.254700571299e-01   2.415750324726e-01   0.000000000000e+00  -1.000000014901e-01 
  2.415750324726e-01   0.000000000000e+00  -1.000000014901e-01   0.000000000000e+00   5.891812592745e-02  -5.131068229675e-01   0.000000000000e+00   5.891812592745e-02  -5.131068229675e-01 
  9.369477629662e-02  -7.232263684273e-03  -4.521109629422e-03   3.438066542149e-01  -2.303458005190e-02  -4.569326937199e-01   0.000000000000e+00   4.963154345751e-02  -1.000000014901e-01 
  0.000000000000e+00  -2.714081667364e-02  -1.743962615728e-01   0.000000000000e+00  -8.659509569407e-02  -1.000000014901e-01   0.000000000000e+00   0.000000000000e+00   7.555790245533e-02 
  0.000000000000e+00  -8.600721508265e-02   3.864862769842e-02   0.000000000000e+00  -8.600721508265e-02   3.864862769842e-02   0.000000000000e+00   5.891812592745e-02  -5.131068229675e-01 
  0.000000000000e+00   5.891812592745e-02  -5.131068229675e-01   9.369477629662e-02  -7.232263684273e-03  -4.521109629422e-03   3.438066542149e-01  -2.303458005190e-02  -4.569326937199e-01 
  0.000000000000e+00   4.963154345751e-02  -1.000000014901e-01   0.000000000000e+00  -2.714081667364e-02  -1.743962615728e-01   0.000000000000e+00  -8.659509569407e-02  -1.000000014901e-01 
  0.000000000000e+00   0.000000000000e+00   7.555790245533e-02   0.000000000000e+00  -8.600721508265e-02   3.864862769842e-02   0.000000000000e+00  -8.600721508265e-02   3.864862769842e-02 
  0.000000000000e+00   7.309757918119e-02  -5.438766479492e-01   0.000000000000e+00   7.309757918119e-02  -5.438766479492e-01   1.546283513308e-01   2.650686353445e-02  -4.499002397060e-01 
  3.191869854927e-01  -2.271842025220e-02  -3.608089685440e-01   4.631600677967e-01   6.798698008060e-02   1.885474175215e-01   0.000000000000e+00   0.000000000000e+00  -1.000000014901e-01 
  0.000000000000e+00  -7.696371525526e-02   4.027654230595e-01  -7.139566540718e-01   0.000000000000e+00   3.864862769842e-02  -2.256367653608e-01  -7.362016290426e-02   2.078555338085e-02 
 -2.256367653608e-01  -7.362016290426e-02   2.078555338085e-02   0.000000000000e+00  -9.784205257893e-02  -1.162527725101e-01   0.000000000000e+00  -9.784205257893e-02  -1.162527725101e-01 
  8.586530387402e-02  -6.579479575157e-02  -3.447719216347e-01   2.622973918915e-01  -2.113223448396e-02  -4.823682606220e-01   5.567165613174e-01  -2.436628490686e-01   6.678567528725e-01 
 -1.299323320389e+00  -3.272224962711e-01   1.130711555481e+00  -1.140276312828e+00  -1.951421797276e-01   6.629205942154e-01  -1.008870840073e+00  -1.415366232395e-01   2.793427705765e-01 
 -7.759364843369e-01  -1.112266108394e-01  -2.064066827297e-01  -7.759364843369e-01  -1.112266108394e-01  -2.064066827297e-01   0.000000000000e+00   7.266094535589e-02  -4.455039203167e-01 
  0.000000000000e+00   7.266094535589e-02  -4.455039203167e-01   1.536181941628e-02  -4.338908195496e-02  -1.132876425982e-01   9.592968225479e-02  -3.799486905336e-03  -3.989875316620e-01 
 -2.592216730118e-01  -1.154751032591e-01  -3.132964670658e-02  -7.905492186546e-01  -1.424081623554e-01   4.041455090046e-01  -9.870266914368e-01  -5.975376814604e-02   2.369084656239e-01 
 -7.755093574524e-01  -2.881156653166e-02   1.908712834120e-01  -4.319466650486e-01  -6.911683827639e-02  -3.042649030685e-01  -4.319466650486e-01  -6.911683827639e-02  -3.042649030685e-01 
  0.000000000000e+00   3.368815779686e-02  -4.938449859619e-01   0.000000000000e+00   3.368815779686e-02  -4.938449859619e-01   6.961260735989e-02   7.286101579666e-02  -8.115679621696e-01 
 -1.612003892660e-01   4.596447944641e-02  -6.350162625313e-01   1.058822870255e-02  -2.279940620065e-02  -3.913173079491e-01   9.951410815120e-03   1.050924230367e-02   4.978109151125e-03 
  3.426020219922e-02   2.385497838259e-02  -6.545974612236e-01   1.152388751507e-01   6.501659285277e-03  -4.927277565002e-01   2.731245383620e-02  -5.852105095983e-02  -5.032277703285e-01 