# vtk DataFile Version 2.0
Written using VisIt writer
ASCII
DATASET RECTILINEAR_GRID
DIMENSIONS 10 10 10
X_COORDINATES 10 float
  0.000000000000e+00   5.000000000000e-01   1.000000000000e+00   1.500000000000e+00   2.000000000000e+00   2.500000000000e+00   3.000000000000e+00   3.500000000000e+00   4.000000000000e+00 
  4.500000000000e+00 
Y_COORDINATES 10 float
  0.000000000000e+00   5.000000000000e-01   1.000000000000e+00   1.500000000000e+00   2.000000000000e+00   2.500000000000e+00   3.000000000000e+00   3.500000000000e+00   4.000000000000e+00 
  4.500000000000e+00 
Z_COORDINATES 10 float
  0.000000000000e+00   5.000000000000e-01   1.000000000000e+00   1.500000000000e+00   2.000000000000e+00   2.500000000000e+00   3.000000000000e+00   3.500000000000e+00   4.000000000000e+00 
  4.500000000000e+00 
CELL_DATA 729
POINT_DATA 1000
VECTORS velocity float
  0.000000000000e+00  -1.104423627257e-01  -2.014979422092e-01   3.251200000000e+04   0.000000000000e+00   0.000000000000e+00   0.000000000000e+00   0.000000000000e+00   0.000000000000e+00 
  1.426241844893e-01  -6.849512457848e-02  -1.549860239029e-01   0.000000000000e+00   0.000000000000e+00   0.000000000000e+00   0.000000000000e+00   1.431655808000e+09   1.070945600000e+09 
  1.427261233330e-01  -7.755338400602e-02  -1.578296422958e-01   1.071994176000e+09   0.000000000000e+00   0.000000000000e+00   0.000000000000e+00   0.000000000000e+00   0.000000000000e+00 
  1.171482577920e-01  -1.456291675568e-01  -1.871327757835e-01   0.000000000000e+00  -1.104423627257e-01  -2.014979422092e-01   1.070945600000e+09   0.000000000000e+00   0.000000000000e+00 
  7.575859874487e-02  -9.691634774208e-02  -1.879619956017e-01   1.426241844893e-01  -6.849512457848e-02  -1.549860239029e-01   1.431655808000e+09   1.070945600000e+09   0.000000000000e+00 
  1.641446053982e-01  -4.145860299468e-02  -1.293553411961e-01   1.427261233330e-01  -7.755338400602e-02  -1.578296422958e-01   0.000000000000e+00   0.000000000000e+00   1.071644672000e+09 
  1.171482577920e-01  -1.456291675568e-01  -1.871327757835e-01   1.171482577920e-01  -1.456291675568e-01  -1.871327757835e-01   0.000000000000e+00  -1.761794905178e-03  -1.711018681526e-01 
  0.000000000000e+00  -1.761794905178e-03  -1.711018681526e-01  -4.325479641557e-02  -2.445181012154e-01  -1.902406215668e-01   1.364701837301e-01  -2.817763984203e-01  -1.810557395220e-01 
  1.095509007573e-01  -1.353917866945e-01  -1.806921660900e-01   1.006612926722e-01  -9.011114388704e-02  -1.390701383352e-01   1.133890450001e-01   1.333867292851e-02  -1.369169205427e-01 
  8.587367832661e-02   3.166358545423e-02  -1.359082460403e-01   1.258909106255e-01  -2.427583187819e-02  -1.464607715607e-01   1.258909106255e-01  -2.427583187819e-02  -1.464607715607e-01 
  0.000000000000e+00   5.018701404333e-02  -1.579883098602e-01   0.000000000000e+00   5.018701404333e-02  -1.579883098602e-01   9.239140897989e-02   1.069590356201e-02  -1.459063887596e-01 
  6.002955138683e-02   6.383049488068e-02  -1.346699446440e-01   4.540412873030e-02   4.611465707421e-02  -1.450422108173e-01   1.780104488134e-01  -5.675043538213e-02  -1.446410417557e-01 
  1.173764318228e-01  -2.252439595759e-02  -1.817685663700e-01   1.307653188705e-01  -5.577680654824e-03  -1.393774598837e-01   1.962026804686e-01  -2.497448213398e-02  -1.319726854563e-01 
  1.962026804686e-01  -2.497448213398e-02  -1.319726854563e-01   0.000000000000e+00   2.793455310166e-02  -1.835178732872e-01   0.000000000000e+00   2.793455310166e-02  -1.835178732872e-01 
 -7.683687377721e-03  -3.350743651390e-02  -1.949157416821e-01   1.075192317367e-01   3.104235790670e-02  -1.397759467363e-01   8.544912189245e-02  -5.072794854641e-03  -1.393551975489e-01 
  1.345224678516e-01   1.022711163387e-03  -1.324125528336e-01   1.017355918884e-01   1.312955282629e-02  -1.543811857700e-01   1.322230249643e-01  -2.820333838463e-02  -1.534685343504e-01 
  1.433674097061e-01  -4.684589430690e-02  -1.791906952858e-01   1.433674097061e-01  -4.684589430690e-02  -1.791906952858e-01   0.000000000000e+00  -5.651757121086e-02  -1.651217341423e-01 
  0.000000000000e+00  -5.651757121086e-02  -1.651217341423e-01   3.130817413330e-02  -1.441811025143e-02  -1.606993228197e-01   1.059073433280e-01  -6.392706930637e-02  -1.633745878935e-01 
  2.105364389718e-02  -1.606115996838e-01  -2.039019763470e-01   1.361831128597e-01  -1.434952467680e-01  -1.454593092203e-01   9.567147493362e-02  -3.679355978966e-02  -1.409943699837e-01 
  8.498852699995e-02   1.071945484728e-02  -1.328978538513e-01   2.003283500671e-01   1.361920535564e-01  -1.384929120541e-01   2.003283500671e-01   1.361920535564e-01  -1.384929120541e-01 
  0.000000000000e+00  -5.595408007503e-02  -1.686708331108e-01   0.000000000000e+00  -5.595408007503e-02  -1.686708331108e-01   6.648758053780e-02  -3.195228800178e-02  -1.532888710499e-01 
  7.772172987461e-02   1.443535741419e-02  -1.413016617298e-01   1.844670809805e-02   1.025064662099e-01  -1.558114737272e-01   1.157463043928e-01  -5.443941056728e-02  -1.611771285534e-01 
  1.083730310202e-01  -9.913427382708e-02  -1.870588958263e-01   9.708562493324e-02  -8.270169794559e-02  -1.458139270544e-01   1.978928446770e-01  -1.865337044001e-02  -1.385444551706e-01 
  1.978928446770e-01  -1.865337044001e-02  -1.385444551706e-01   0.000000000000e+00  -1.428618282080e-01  -2.075518816710e-01   0.000000000000e+00  -1.428618282080e-01  -2.075518816710e-01 
 -7.534611225128e-02  -1.107000038028e-01  -2.303708195686e-01   1.244754418731e-01  -4.417269676924e-02  -1.650234311819e-01   4.301553219557e-02   3.001418709755e-02  -1.735372543335e-01 
  1.520134210587e-01   3.387998789549e-02  -1.358050704002e-01   1.197777166963e-01   3.651017788798e-03  -1.462858915329e-01   1.343985795975e-01  -1.115278676152e-01  -1.622365266085e-01 
  2.521711587906e-01  -1.252773553133e-01  -1.947273164988e-01   2.521711587906e-01  -1.252773553133e-01  -1.947273164988e-01   0.000000000000e+00   0.000000000000e+00  -1.679808348417e-01 
  0.000000000000e+00   0.000000000000e+00  -1.679808348417e-01  -1.068993732333e-01   0.000000000000e+00  -1.856863945723e-01   9.617523103952e-02   0.000000000000e+00  -1.677602082491e-01 
 -2.847487805411e-03   0.000000000000e+00  -2.391985803843e-01   2.834250330925e-01   0.000000000000e+00  -1.389831453562e-01   2.054180800915e-01   0.000000000000e+00  -1.232890486717e-01 
  1.628703474998e-01   0.000000000000e+00  -1.256831437349e-01   2.819168865681e-01   0.000000000000e+00  -1.362862735987e-01   2.819168865681e-01   0.000000000000e+00  -1.362862735987e-01 
  0.000000000000e+00   0.000000000000e+00  -1.679808348417e-01   0.000000000000e+00   0.000000000000e+00  -1.679808348417e-01  -1.068993732333e-01   0.000000000000e+00  -1.856863945723e-01 
  9.617523103952e-02   0.000000000000e+00  -1.677602082491e-01  -2.847487805411e-03   0.000000000000e+00  -2.391985803843e-01   2.834250330925e-01   0.000000000000e+00  -1.389831453562e-01 
  2.054180800915e-01   0.000000000000e+00  -1.232890486717e-01   1.628703474998e-01   0.000000000000e+00  -1.256831437349e-01   2.819168865681e-01   0.000000000000e+00  -1.362862735987e-01 
  2.819168865681e-01   0.000000000000e+00  -1.362862735987e-01   0.000000000000e+00  -1.104423627257e-01  -2.014979422092e-01   0.000000000000e+00  -1.104423627257e-01  -2.014979422092e-01 
  7.575859874487e-02  -9.691634774208e-02  -1.879619956017e-01   1.426241844893e-01  -6.849512457848e-02  -1.549860239029e-01   1.264427155256e-01  -4.466611519456e-02  -1.371452212334e-01 
  1.641446053982e-01  -4.145860299468e-02  -1.293553411961e-01   1.427261233330e-01  -7.755338400602e-02  -1.578296422958e-01   1.254691481590e-01  -7.881322503090e-02  -1.690414845943e-01 
  1.171482577920e-01  -1.456291675568e-01  -1.871327757835e-01   1.171482577920e-01  -1.456291675568e-01  -1.871327757835e-01   0.000000000000e+00  -1.104423627257e-01  -2.014979422092e-01 
  0.000000000000e+00  -1.104423627257e-01  -2.014979422092e-01   7.575859874487e-02  -9.691634774208e-02  -1.879619956017e-01   1.426241844893e-01  -6.849512457848e-02  -1.549860239029e-01 
  1.264427155256e-01  -4.466611519456e-02  -1.371452212334e-01   1.641446053982e-01  -4.145860299468e-02  -1.293553411961e-01   1.427261233330e-01  -7.755338400602e-02  -1.578296422958e-01 
  1.254691481590e-01  -7.881322503090e-02  -1.690414845943e-01   1.171482577920e-01  -1.456291675568e-01  -1.871327757835e-01   1.171482577920e-01  -1.456291675568e-01  -1.871327757835e-01 
  0.000000000000e+00  -1.761794905178e-03  -1.711018681526e-01   0.000000000000e+00  -1.761794905178e-03  -1.711018681526e-01  -4.325479641557e-02  -2.445181012154e-01  -1.902406215668e-01 
  1.364701837301e-01  -2.817763984203e-01  -1.810557395220e-01   1.095509007573e-01  -1.353917866945e-01  -1.806921660900e-01   1.006612926722e-01  -9.011114388704e-02  -1.390701383352e-01 
  1.133890450001e-01   1.333867292851e-02  -1.369169205427e-01   8.587367832661e-02   3.166358545423e-02  -1.359082460403e-01   1.258909106255e-01  -2.427583187819e-02  -1.464607715607e-01 
  1.258909106255e-01  -2.427583187819e-02  -1.464607715607e-01   0.000000000000e+00   5.018701404333e-02  -1.579883098602e-01   0.000000000000e+00   5.018701404333e-02  -1.579883098602e-01 
  9.239140897989e-02   1.069590356201e-02  -1.459063887596e-01   6.002955138683e-02   6.383049488068e-02  -1.346699446440e-01   4.540412873030e-02   4.611465707421e-02  -1.450422108173e-01 
  1.780104488134e-01  -5.675043538213e-02  -1.446410417557e-01   1.173764318228e-01  -2.252439595759e-02  -1.817685663700e-01   1.307653188705e-01  -5.577680654824e-03  -1.393774598837e-01 
  1.962026804686e-01  -2.497448213398e-02  -1.319726854563e-01   1.962026804686e-01  -2.497448213398e-02  -1.319726854563e-01   0.000000000000e+00   2.793455310166e-02  -1.835178732872e-01 
  0.000000000000e+00   2.793455310166e-02  -1.835178732872e-01  -7.683687377721e-03  -3.350743651390e-02  -1.949157416821e-01   1.075192317367e-01   3.104235790670e-02  -1.397759467363e-01 
  8.544912189245e-02  -5.072794854641e-03  -1.393551975489e-01   1.345224678516e-01   1.022711163387e-03  -1.324125528336e-01   1.017355918884e-01   1.312955282629e-02  -1.543811857700e-01 
  1.322230249643e-01  -2.820333838463e-02  -1.534685343504e-01   1.433674097061e-01  -4.684589430690e-02  -1.791906952858e-01   1.433674097061e-01  -4.684589430690e-02  -1.791906952858e-01 
  0.000000000000e+00  -5.651757121086e-02  -1.651217341423e-01   0.000000000000e+00  -5.651757121086e-02  -1.651217341423e-01   3.130817413330e-02  -1.441811025143e-02  -1.606993228197e-01 
  1.059073433280e-01  -6.392706930637e-02  -1.633745878935e-01   2.105364389718e-02  -1.606115996838e-01  -2.039019763470e-01   1.361831128597e-01  -1.434952467680e-01  -1.454593092203e-01 
  9.567147493362e-02  -3.679355978966e-02  -1.409943699837e-01   8.498852699995e-02   1.071945484728e-02  -1.328978538513e-01   2.003283500671e-01   1.361920535564e-01  -1.384929120541e-01 
  2.003283500671e-01   1.361920535564e-01  -1.384929120541e-01   0.000000000000e+00  -5.595408007503e-02  -1.686708331108e-01   0.000000000000e+00  -5.595408007503e-02  -1.686708331108e-01 
  6.648758053780e-02  -3.195228800178e-02  -1.532888710499e-01   7.772172987461e-02   1.443535741419e-02  -1.413016617298e-01   1.844670809805e-02   1.025064662099e-01  -1.558114737272e-01 
  1.157463043928e-01  -5.443941056728e-02  -1.611771285534e-01   1.083730310202e-01  -9.913427382708e-02  -1.870588958263e-01   9.708562493324e-02  -8.270169794559e-02  -1.458139270544e-01 
  1.978928446770e-01  -1.865337044001e-02  -1.385444551706e-01   1.978928446770e-01  -1.865337044001e-02  -1.385444551706e-01   0.000000000000e+00  -1.428618282080e-01  -2.075518816710e-01 
  0.000000000000e+00  -1.428618282080e-01  -2.075518816710e-01  -7.534611225128e-02  -1.107000038028e-01  -2.303708195686e-01   1.244754418731e-01  -4.417269676924e-02  -1.650234311819e-01 
  4.301553219557e-02   3.001418709755e-02  -1.735372543335e-01   1.520134210587e-01   3.387998789549e-02  -1.358050704002e-01   1.197777166963e-01   3.651017788798e-03  -1.462858915329e-01 
  1.343985795975e-01  -1.115278676152e-01  -1.622365266085e-01   2.521711587906e-01  -1.252773553133e-01  -1.947273164988e-01   2.521711587906e-01  -1.252773553133e-01  -1.947273164988e-01 
  0.000000000000e+00   0.000000000000e+00  -1.679808348417e-01   0.000000000000e+00   0.000000000000e+00  -1.679808348417e-01  -1.068993732333e-01   0.000000000000e+00  -1.856863945723e-01 
  9.617523103952e-02   0.000000000000e+00  -1.677602082491e-01  -2.847487805411e-03   0.000000000000e+00  -2.391985803843e-01   2.834250330925e-01   0.000000000000e+00  -1.389831453562e-01 
  2.054180800915e-01   0.000000000000e+00  -1.232890486717e-01   1.628703474998e-01   0.000000000000e+00  -1.256831437349e-01   2.819168865681e-01   0.000000000000e+00  -1.362862735987e-01 
  2.819168865681e-01   0.000000000000e+00  -1.362862735987e-01   0.000000000000e+00   0.000000000000e+00  -1.679808348417e-01   0.000000000000e+00   0.000000000000e+00  -1.679808348417e-01 
 -1.068993732333e-01   0.000000000000e+00  -1.856863945723e-01   9.617523103952e-02   0.000000000000e+00  -1.677602082491e-01  -2.847487805411e-03   0.000000000000e+00  -2.391985803843e-01 
  2.834250330925e-01   0.000000000000e+00  -1.389831453562e-01   2.054180800915e-01   0.000000000000e+00  -1.232890486717e-01   1.628703474998e-01   0.000000000000e+00  -1.256831437349e-01 
  2.819168865681e-01   0.000000000000e+00  -1.362862735987e-01   2.819168865681e-01   0.000000000000e+00  -1.362862735987e-01   0.000000000000e+00  -2.025217562914e-01  -1.016974806786e+00 
  0.000000000000e+00  -2.025217562914e-01  -1.016974806786e+00   6.938914060593e-01  -6.405615061522e-02  -1.068996906281e+00   2.038971334696e-01  -1.682383716106e-01  -5.737963914871e-01 
  3.843626081944e-01  -8.740242570639e-02  -5.554258227348e-01   2.375019937754e-01  -3.042781166732e-02  -2.322877645493e-01   1.922411620617e-01  -1.440310850739e-02  -4.217035323381e-02 
  1.248537376523e-01  -6.182783748955e-03  -9.283974766731e-01   1.171550750732e-01  -6.145314499736e-02  -9.102181792259e-01   1.171550750732e-01  -6.145314499736e-02  -9.102181792259e-01 
  0.000000000000e+00  -2.025217562914e-01  -1.016974806786e+00   0.000000000000e+00  -2.025217562914e-01  -1.016974806786e+00   6.938914060593e-01  -6.405615061522e-02  -1.068996906281e+00 
  2.038971334696e-01  -1.682383716106e-01  -5.737963914871e-01   3.843626081944e-01  -8.740242570639e-02  -5.554258227348e-01   2.375019937754e-01  -3.042781166732e-02  -2.322877645493e-01 
  1.922411620617e-01  -1.440310850739e-02  -4.217035323381e-02   1.248537376523e-01  -6.182783748955e-03  -9.283974766731e-01   1.171550750732e-01  -6.145314499736e-02  -9.102181792259e-01 
  1.171550750732e-01  -6.145314499736e-02  -9.102181792259e-01   0.000000000000e+00  -3.488925099373e-02  -6.179865002632e-01   0.000000000000e+00  -3.488925099373e-02  -6.179865002632e-01 
  1.433032900095e-01  -1.243400573730e-01  -5.472992062569e-01   2.167966961861e-01  -1.690335422754e-01  -7.041213512421e-01   6.587722897530e-01  -1.522126644850e-01  -5.832255482674e-01 
  4.572824835777e-01  -4.569390788674e-02  -3.210518062115e-01   5.065821409225e-01   7.692265789956e-03  -1.112888813019e+00   9.597200900316e-02   3.092835471034e-02  -9.611689448357e-01 
  1.238141506910e-01  -2.421956881881e-02  -9.505676627159e-01   1.238141506910e-01  -2.421956881881e-02  -9.505676627159e-01   0.000000000000e+00   1.876948177814e-01  -1.003812909126e+00 
  0.000000000000e+00   1.876948177814e-01  -1.003812909126e+00   2.243637144566e-01   2.887565195560e-01  -7.693758606911e-01   4.841277003288e-01   2.069812715054e-01  -7.500764727592e-01 
  7.074795365334e-01   8.508503437042e-02  -9.453376531601e-01   1.170524835587e+00   1.630257815123e-01  -1.083737611771e+00   1.219319939613e+00   4.940990358591e-02  -1.067437648773e+00 
  0.000000000000e+00   4.212887212634e-02  -6.062254309654e-02   0.000000000000e+00  -2.452218160033e-02  -6.802731752396e-02   0.000000000000e+00  -2.452218160033e-02  -6.802731752396e-02 
  0.000000000000e+00   1.142788096331e-03  -9.318708777428e-01   0.000000000000e+00   1.142788096331e-03  -9.318708777428e-01   1.008099988103e-01   2.050586938858e-01  -1.169731140137e+00 
  4.238265454769e-01   5.887134671211e-01  -5.709040164948e-01   3.792589008808e-01   3.883549943566e-02  -8.092002272606e-01   2.994971871376e-01   1.926497966051e-01  -6.745101809502e-01 
  1.289162486792e-01   7.394819706678e-02  -9.384607672691e-01   1.321305483580e-01   5.350826308131e-02  -4.653146490455e-02   1.449450999498e-01  -4.623529687524e-02  -2.080930769444e-02 
  1.449450999498e-01  -4.623529687524e-02  -2.080930769444e-02   0.000000000000e+00   4.357413575053e-02  -8.317412734032e-01   0.000000000000e+00   4.357413575053e-02  -8.317412734032e-01 
  7.444214820862e-02   2.564115449786e-03  -8.923100829124e-01   1.108239665627e-01   1.666965633631e-01  -1.414902657270e-01   8.632958680391e-02   3.055174946785e-01  -4.033878147602e-01 
  3.251173794270e-01   1.419023424387e-02  -3.756126165390e-01   1.854581534863e-01  -2.415830269456e-02  -1.005744934082e+00   1.351018399000e-01   6.791451014578e-03  -9.540388584137e-01 
  2.325070351362e-01   1.334877908230e-01  -6.150708720088e-02   2.325070351362e-01   1.334877908230e-01  -6.150708720088e-02   0.000000000000e+00  -2.012235224247e-01  -1.017433166504e+00 
  0.000000000000e+00  -2.012235224247e-01  -1.017433166504e+00   2.394905835390e-01   7.815623283386e-02  -9.583705663681e-01   3.429059684277e-01   5.336285829544e-01  -1.002854585648e+00 
  5.920906066895e-01   4.083558619022e-01  -7.731741070747e-01   3.415542840958e-01   1.465122103691e-01  -6.461558341980e-01   2.354138493538e-01   3.586790291592e-03  -7.703461050987e-01 
  3.264024257660e-01  -6.172714382410e-02  -9.395546317101e-01   4.377191066742e-01  -2.620236016810e-02  -6.145554780960e-02   4.377191066742e-01  -2.620236016810e-02  -6.145554780960e-02 
  0.000000000000e+00   1.317177861929e-01  -7.610934376717e-01   0.000000000000e+00   1.317177861929e-01  -7.610934376717e-01   2.625909447670e-01   5.739803984761e-02  -8.462458252907e-01 
  4.051824510098e-01  -7.348544895649e-02  -1.454439043999e+00   6.744054555893e-01  -7.192645221949e-02  -2.321679115295e+00   6.004634872079e-02   1.139139458537e-01  -1.251827359200e+00 
  1.439426094294e-01   2.495378023013e-03  -7.032581567764e-01   7.850360274315e-01   1.840983750299e-04  -7.625955939293e-01   8.544616103172e-01  -6.318250298500e-02  -9.262793660164e-01 
  8.544616103172e-01  -6.318250298500e-02  -9.262793660164e-01   0.000000000000e+00   0.000000000000e+00  -5.570088624954e-01   0.000000000000e+00   0.000000000000e+00  -5.570088624954e-01 
  3.662702441216e-01   0.000000000000e+00  -5.611885786057e-01   4.885645508766e-01   0.000000000000e+00  -1.420166850090e+00  -1.032563209534e+00   0.000000000000e+00  -1.251595973969e+00 
 -5.211945176125e-01   1.008846610785e-02  -7.124048471451e-01   6.552901864052e-02   3.388110781088e-04  -7.671095430851e-02   4.900973439217e-01   0.000000000000e+00  -7.892278432846e-01 
  8.682498335838e-01   0.000000000000e+00  -1.233887434006e+00   8.682498335838e-01   0.000000000000e+00  -1.233887434006e+00   0.000000000000e+00   0.000000000000e+00  -5.570088624954e-01 
  0.000000000000e+00   0.000000000000e+00  -5.570088624954e-01   3.662702441216e-01   0.000000000000e+00  -5.611885786057e-01   4.885645508766e-01   0.000000000000e+00  -1.420166850090e+00 
 -1.032563209534e+00   0.000000000000e+00  -1.251595973969e+00  -5.211945176125e-01   1.008846610785e-02  -7.124048471451e-01   6.552901864052e-02   3.388110781088e-04  -7.671095430851e-02 
  4.900973439217e-01   0.000000000000e+00  -7.892278432846e-01   8.682498335838e-01   0.000000000000e+00  -1.233887434006e+00   8.682498335838e-01   0.000000000000e+00  -1.233887434006e+00 
  0.000000000000e+00  -9.674452245235e-02  -4.776828587055e-01   0.000000000000e+00  -9.674452245235e-02  -4.776828587055e-01   3.455331549048e-02   5.767440423369e-02  -5.914507508278e-01 
 -6.385867297649e-02  -1.072024181485e-01  -4.992624819279e-01   1.470604166389e-02  -7.529020309448e-02  -4.802328944206e-01   0.000000000000e+00   0.000000000000e+00  -1.000000014901e-01 
  0.000000000000e+00   3.315706504509e-03  -1.507115215063e-01   1.662778258324e-01  -3.137457184494e-03  -8.267316222191e-01   1.760482490063e-01  -4.308662936091e-02  -8.861742615700e-01 
  1.760482490063e-01  -4.308662936091e-02  -8.861742615700e-01   0.000000000000e+00  -9.674452245235e-02  -4.776828587055e-01   0.000000000000e+00  -9.674452245235e-02  -4.776828587055e-01 
  3.455331549048e-02   5.767440423369e-02  -5.914507508278e-01  -6.385867297649e-02  -1.072024181485e-01  -4.992624819279e-01   1.470604166389e-02  -7.529020309448e-02  -4.802328944206e-01 
  0.000000000000e+00   0.000000000000e+00  -1.000000014901e-01   0.000000000000e+00   3.315706504509e-03  -1.507115215063e-01   1.662778258324e-01  -3.137457184494e-03  -8.267316222191e-01 
  1.760482490063e-01  -4.308662936091e-02  -8.861742615700e-01   1.760482490063e-01  -4.308662936091e-02  -8.861742615700e-01   0.000000000000e+00   6.676447391510e-02  -6.687619686127e-01 
  0.000000000000e+00   6.676447391510e-02  -6.687619686127e-01   9.534023702145e-02   1.194259449840e-01  -4.638195931911e-01   1.304942667484e-01  -1.268723905087e-01  -1.180599108338e-01 
  5.307505726814e-01  -5.604800954461e-02  -3.696956336498e-01   5.891610383987e-01   0.000000000000e+00  -6.565368771553e-01   6.629080511630e-03   1.020816061646e-02  -1.031683802605e+00 
  2.594587504864e-01   0.000000000000e+00  -6.358917355537e-01   2.681033015251e-01  -7.040065247566e-03  -7.930533289909e-01   2.681033015251e-01  -7.040065247566e-03  -7.930533289909e-01 
  0.000000000000e+00   3.168726563454e-01  -1.542513668537e-01   0.000000000000e+00   3.168726563454e-01  -1.542513668537e-01   1.716290861368e-01  -1.366071701050e-01  -3.802309334278e-01 
  4.362073540688e-01  -2.325740270317e-02  -2.898547649384e-01   6.272662281990e-01  -2.964653447270e-02  -6.751384139061e-01   7.567540407181e-01   1.109362989664e-01  -1.132573008537e+00 
  0.000000000000e+00   4.676616191864e-02  -1.149805665016e+00   3.161312937737e-01   3.900072351098e-02  -6.415404677391e-01   3.274287879467e-01   2.260079048574e-02  -6.358917355537e-01 
  3.274287879467e-01   2.260079048574e-02  -6.358917355537e-01   0.000000000000e+00  -9.013698250055e-02  -4.118958413601e-01   0.000000000000e+00  -9.013698250055e-02  -4.118958413601e-01 
  6.660532951355e-02  -1.885326057673e-01  -3.938244581223e-01   8.758880496025e-01  -3.980870246887e-01  -2.478240281343e-01   6.718420386314e-01  -1.798766106367e-01  -2.383767366409e-01 
  2.516651451588e-01   2.435160055757e-02  -6.229768991470e-01   2.828939557076e-01   5.491755157709e-02  -8.443394303322e-01   2.689619362354e-01   5.029820278287e-02  -1.000000014901e-01 
  2.744331657887e-01   2.378249540925e-02  -1.943978816271e-01   2.744331657887e-01   2.378249540925e-02  -1.943978816271e-01   0.000000000000e+00   4.280489683151e-02  -2.661883533001e-01 
  0.000000000000e+00   4.280489683151e-02  -2.661883533001e-01   1.175578460097e-01  -2.487424314022e-01  -2.057964056730e-01   3.691518306732e-01   6.017426401377e-02  -2.900608181953e-01 
  1.978479772806e-01   1.035668179393e-01  -1.751518100500e-01   3.226565718651e-01   6.137201935053e-02  -1.389435380697e-01   1.789866536856e-01   1.730323024094e-02  -7.186554670334e-01 
  1.593702584505e-01   0.000000000000e+00  -9.359652996063e-01   2.479455322027e-01   7.265183329582e-02  -1.884259134531e-01   2.479455322027e-01   7.265183329582e-02  -1.884259134531e-01 
  0.000000000000e+00  -1.199302002788e-01  -3.784494102001e-01   0.000000000000e+00  -1.199302002788e-01  -3.784494102001e-01   1.756567656994e-01  -1.234173327684e-01  -5.646464824677e-01 
  1.942413300276e-01   2.699683010578e-01  -6.069489121437e-01   4.735697805882e-01   1.858124583960e-01   6.849873811007e-02   4.283669888973e-01   1.434223651886e-01   1.793114244938e-01 
  0.000000000000e+00   5.428678169847e-02  -7.495440244675e-01   2.247329056263e-01  -4.706116020679e-02  -8.764712810516e-01   4.490513205528e-01  -3.092557750642e-02  -4.081588685513e-01 
  4.490513205528e-01  -3.092557750642e-02  -4.081588685513e-01   0.000000000000e+00   1.207112744451e-01  -3.918479681015e-01   0.000000000000e+00   1.207112744451e-01  -3.918479681015e-01 
  1.812680065632e-01   7.588793337345e-02  -4.516213238239e-01   2.430559694767e-01   1.038617081940e-02  -1.192147731781e+00   4.706417024136e-01   6.020830571651e-02  -6.649119257927e-01 
 -1.859525144100e-01   8.969663083553e-02  -5.750775933266e-01  -2.120718359947e-02   6.715642288327e-03  -7.472177743912e-01   0.000000000000e+00   0.000000000000e+00  -8.049898743629e-01 
  5.934679508209e-01  -3.411118313670e-02  -9.400830268860e-01   5.934679508209e-01  -3.411118313670e-02  -9.400830268860e-01   0.000000000000e+00   0.000000000000e+00  -3.628223538399e-01 
  0.000000000000e+00   0.000000000000e+00  -3.628223538399e-01   2.120033055544e-01   0.000000000000e+00  -2.970336079597e-01   6.839039921761e-02   1.828700304031e-03  -1.146778702736e+00 
  3.626271188259e-01   0.000000000000e+00  -8.655488491058e-01  -8.888630568981e-02   2.551916427910e-02  -7.531327605247e-01  -5.386441573501e-02   1.354151987471e-03  -3.834364116192e-01 
  4.741294384003e-01   0.000000000000e+00  -8.774401545525e-01   8.606920838356e-01   0.000000000000e+00  -1.098418116570e+00   8.606920838356e-01   0.000000000000e+00  -1.098418116570e+00 
  0.000000000000e+00   0.000000000000e+00  -3.628223538399e-01   0.000000000000e+00   0.000000000000e+00  -3.628223538399e-01   2.120033055544e-01   0.000000000000e+00  -2.970336079597e-01 
  6.839039921761e-02   1.828700304031e-03  -1.146778702736e+00   3.626271188259e-01   0.000000000000e+00  -8.655488491058e-01  -8.888630568981e-02   2.551916427910e-02  -7.531327605247e-01 
 -5.386441573501e-02   1.354151987471e-03  -3.834364116192e-01   4.741294384003e-01   0.000000000000e+00  -8.774401545525e-01   8.606920838356e-01   0.000000000000e+00  -1.098418116570e+00 
  8.606920838356e-01   0.000000000000e+00  -1.098418116570e+00   0.000000000000e+00   1.019488349557e-01  -4.251614511013e-01   0.000000000000e+00   1.019488349557e-01  -4.251614511013e-01 
  1.256208419800e-01   1.738917529583e-01   3.762781247497e-02  -1.975580006838e-01   1.589292287827e-01   1.103587914258e-02   0.000000000000e+00  -1.668714582920e-01  -1.000000014901e-01 
  8.687271475792e-01  -1.607539951801e-01  -6.366841197014e-01   8.564922213554e-01   0.000000000000e+00  -6.428015828133e-01   0.000000000000e+00   2.817043801770e-03  -6.766901016235e-01 
  1.193850487471e-01  -1.451932825148e-02  -7.783975005150e-01   1.193850487471e-01  -1.451932825148e-02  -7.783975005150e-01   0.000000000000e+00   1.019488349557e-01  -4.251614511013e-01 
  0.000000000000e+00   1.019488349557e-01  -4.251614511013e-01   1.256208419800e-01   1.738917529583e-01   3.762781247497e-02  -1.975580006838e-01   1.589292287827e-01   1.103587914258e-02 
  0.000000000000e+00  -1.668714582920e-01  -1.000000014901e-01   8.687271475792e-01  -1.607539951801e-01  -6.366841197014e-01   8.564922213554e-01   0.000000000000e+00  -6.428015828133e-01 
  0.000000000000e+00   2.817043801770e-03  -6.766901016235e-01   1.193850487471e-01  -1.451932825148e-02  -7.783975005150e-01   1.193850487471e-01  -1.451932825148e-02  -7.783975005150e-01 
  0.000000000000e+00   1.477041095495e-01  -4.698519706726e-01   0.000000000000e+00   1.477041095495e-01  -4.698519706726e-01  -6.337235681713e-03   2.218436300755e-01   9.945400804281e-02 
 -3.963698446751e-01   1.988710612059e-01   6.193476170301e-02  -1.432226002216e-01  -1.668714582920e-01  -2.083572596312e-01   0.000000000000e+00  -1.729889214039e-01  -1.000000014901e-01 
  0.000000000000e+00   0.000000000000e+00  -4.677201807499e-01   2.973758876324e-01   8.899276144803e-03  -6.358917355537e-01   2.946967780590e-01   7.733802776784e-03  -6.945872306824e-01 
  2.946967780590e-01   7.733802776784e-03  -6.945872306824e-01   0.000000000000e+00   2.241329997778e-01  -5.716676712036e-01   0.000000000000e+00   2.241329997778e-01  -5.716676712036e-01 
  1.134623028338e-02   8.465132117271e-02  -3.055081069469e-01   6.671075522900e-02   7.659662514925e-02  -1.848296523094e-01   5.208927989006e-01  -2.492365986109e-02  -1.588564217091e-01 
  5.988451838493e-01   0.000000000000e+00  -1.005362391472e+00   7.396489977837e-01   2.754159271717e-02  -1.000000014901e-01   3.419906795025e-01   4.464946314692e-02  -6.302430033684e-01 
  3.217800557613e-01   3.370143100619e-02  -6.358917355537e-01   3.217800557613e-01   3.370143100619e-02  -6.358917355537e-01   0.000000000000e+00  -2.012669593096e-01  -3.063741326332e-01 
  0.000000000000e+00  -2.012669593096e-01  -3.063741326332e-01   9.583723545074e-02  -1.324821412563e-01  -1.476085186005e-01   7.526889443398e-01  -2.498810887337e-01   1.666546911001e-01 
  7.234137058258e-01  -1.092258617282e-01   5.985859781504e-02   2.655081152916e-01   1.549299713224e-02  -2.324741929770e-01   8.331985473633e-01   2.514925785363e-02  -1.000000014901e-01 
  8.548449277878e-01   4.781468957663e-02  -4.015134572983e-01   4.551742076874e-01   3.523583710194e-02  -3.997596204281e-01   4.551742076874e-01   3.523583710194e-02  -3.997596204281e-01 
  0.000000000000e+00   7.517795264721e-02  -5.186564326286e-01   0.000000000000e+00   7.517795264721e-02  -5.186564326286e-01   3.121217153966e-02   2.474523335695e-01  -2.336703985929e-01 
  1.839939355850e-01   5.342089384794e-02  -1.587885022163e-01   2.700843214989e-01   2.923331595957e-02  -6.448267400265e-02   3.019932210445e-01   1.587531566620e-01  -3.430032730103e-02 
  5.341600179672e-01   9.073694236577e-03  -8.292314410210e-02   4.906591475010e-01   2.351171150804e-02  -4.551360905170e-01   3.329404294491e-01   2.327149361372e-02  -2.923270761967e-01 