# vtk DataFile Version 2.0
Written using VisIt writer
ASCII
DATASET RECTILINEAR_GRID
DIMENSIONS 10 10 10
X_COORDINATES 10 float
  0.000000000000e+00   5.000000000000e-01   1.000000000000e+00   1.500000000000e+00   2.000000000000e+00   2.500000000000e+00   3.000000000000e+00   3.500000000000e+00   4.000000000000e+00 
  4.500000000000e+00 
Y_COORDINATES 10 float
  0.000000000000e+00   5.000000000000e-01   1.000000000000e+00   1.500000000000e+00   2.000000000000e+00   2.500000000000e+00   3.000000000000e+00   3.500000000000e+00   4.000000000000e+00 
  4.500000000000e+00 
Z_COORDINATES 10 float
  0.000000000000e+00   5.000000000000e-01   1.000000000000e+00   1.500000000000e+00   2.000000000000e+00   2.500000000000e+00   3.000000000000e+00   3.500000000000e+00   4.000000000000e+00 
  4.500000000000e+00 
CELL_DATA 729
POINT_DATA 1000
VECTORS velocity float
  0.000000000000e+00  -1.005066186190e-01  -2.233785539865e-01   3.251200000000e+04   0.000000000000e+00   0.000000000000e+00   0.000000000000e+00   0.000000000000e+00   0.000000000000e+00 
  1.401570998132e-02  -6.760942935944e-02  -1.498364657164e-01   0.000000000000e+00   0.000000000000e+00   0.000000000000e+00   0.000000000000e+00   1.431655808000e+09   1.070945600000e+09 
 -1.209633722901e-01  -9.481051564217e-02  -1.693948358297e-01   1.071994176000e+09   0.000000000000e+00   0.000000000000e+00   0.000000000000e+00   0.000000000000e+00   0.000000000000e+00 
 -1.378140747547e-01  -9.803047031164e-02  -1.957953274250e-01   0.000000000000e+00  -1.005066186190e-01  -2.233785539865e-01   1.070945600000e+09   0.000000000000e+00   0.000000000000e+00 
 -1.363994553685e-03  -1.147066429257e-01  -1.992519348860e-01   1.401570998132e-02  -6.760942935944e-02  -1.498364657164e-01   1.431655808000e+09   1.070945600000e+09   0.000000000000e+00 
 -7.846610993147e-02  -5.382226407528e-02  -1.357173323631e-01  -1.209633722901e-01  -9.481051564217e-02  -1.693948358297e-01   0.000000000000e+00   0.000000000000e+00   1.071644672000e+09 
 -1.378140747547e-01  -9.803047031164e-02  -1.957953274250e-01  -1.378140747547e-01  -9.803047031164e-02  -1.957953274250e-01   0.000000000000e+00   5.825751274824e-02  -1.869933158159e-01 
  0.000000000000e+00   5.825751274824e-02  -1.869933158159e-01  -8.518607914448e-02   1.788073964417e-02  -1.893076151609e-01  -4.359792172909e-02  -1.387422233820e-01  -1.694814115763e-01 
 -1.486369073391e-01  -2.478214204311e-01  -1.838297694921e-01   4.363209009171e-02  -9.030634164810e-02  -1.361515074968e-01   3.928299993277e-02  -5.418018624187e-02  -1.408826112747e-01 
  1.730426773429e-02  -3.180672228336e-02  -1.367034167051e-01  -3.942123055458e-02   2.696284092963e-02  -1.469066739082e-01  -3.942123055458e-02   2.696284092963e-02  -1.469066739082e-01 
  0.000000000000e+00   1.887432299554e-03  -1.878098547459e-01   0.000000000000e+00   1.887432299554e-03  -1.878098547459e-01  -2.468196116388e-02   8.104962110519e-02  -1.682016998529e-01 
 -7.246299646795e-03   7.905596494675e-02  -1.418020129204e-01  -2.871289290488e-02  -4.830821976066e-02  -1.476062238216e-01  -8.046545833349e-02  -1.354653686285e-01  -1.501955389977e-01 
 -1.942619383335e-01  -6.086422875524e-02  -1.885122060776e-01   3.489750996232e-02   4.094251617789e-02  -1.292394548655e-01   5.762622132897e-02   4.745316132903e-02  -1.188358366489e-01 
  5.762622132897e-02   4.745316132903e-02  -1.188358366489e-01   0.000000000000e+00  -8.178243041039e-02  -2.348952442408e-01   0.000000000000e+00  -8.178243041039e-02  -2.348952442408e-01 
 -5.071462690830e-02  -2.370410040021e-02  -2.531712353230e-01   1.690970659256e-01  -6.549459882081e-03  -1.720992177725e-01   6.294170767069e-02  -1.369388215244e-02  -1.411081850529e-01 
 -7.563875615597e-02   2.215993963182e-02  -1.332389265299e-01  -1.837252825499e-01   3.561417339370e-03  -1.545391976833e-01  -7.099293917418e-02  -5.726302042603e-02  -1.525831669569e-01 
 -3.860211372375e-02  -8.354260027409e-02  -1.845061779022e-01  -3.860211372375e-02  -8.354260027409e-02  -1.845061779022e-01   0.000000000000e+00   3.429896384478e-02  -1.847823709249e-01 
  0.000000000000e+00   3.429896384478e-02  -1.847823709249e-01  -2.032505348325e-02  -3.203728422523e-02  -1.953240334988e-01   6.104307249188e-02  -2.904552733526e-03  -1.944160312414e-01 
 -7.350497692823e-02   1.928719505668e-02  -1.959351599216e-01   2.736922167242e-02   6.077237799764e-02  -1.376553922892e-01  -1.620893180370e-02   1.846098154783e-02  -1.389306038618e-01 
 -1.026261504740e-02  -2.790945395827e-02  -1.363018900156e-01  -4.700189456344e-03  -6.861069798470e-02  -1.499571353197e-01  -4.700189456344e-03  -6.861069798470e-02  -1.499571353197e-01 
  0.000000000000e+00   6.154489889741e-02  -1.783367097378e-01   0.000000000000e+00   6.154489889741e-02  -1.783367097378e-01  -1.209992915392e-02  -3.476056456566e-02  -1.695388406515e-01 
 -8.448241278529e-03   3.524400666356e-02  -1.519940495491e-01  -7.122347503901e-02   6.882187724113e-02  -1.591501832008e-01  -1.280309408903e-01   2.266942709684e-02  -1.671661287546e-01 
 -5.849124491215e-02  -1.275135483593e-02  -1.937301903963e-01   7.047666609287e-02   6.938388571143e-03  -1.382488012314e-01   1.131635606289e-01  -1.054876446724e-01  -1.447274237871e-01 
  1.131635606289e-01  -1.054876446724e-01  -1.447274237871e-01   0.000000000000e+00   1.137979701161e-01  -2.210346758366e-01   0.000000000000e+00   1.137979701161e-01  -2.210346758366e-01 
 -5.576402693987e-02  -1.595878042281e-02  -2.235914617777e-01   5.197085440159e-02  -2.971705794334e-02  -1.534485220909e-01   1.140131987631e-02  -2.774708904326e-03  -1.467659771442e-01 
 -6.414271891117e-02   6.310937553644e-02  -1.409880667925e-01  -2.990211173892e-02   9.761196374893e-02  -1.487092673779e-01   7.386881113052e-02   4.590597748756e-02  -1.554218977690e-01 
  1.592319086194e-02  -1.433659940958e-01  -2.271166145802e-01   1.592319086194e-02  -1.433659940958e-01  -2.271166145802e-01   0.000000000000e+00   0.000000000000e+00  -1.878543049097e-01 
  0.000000000000e+00   0.000000000000e+00  -1.878543049097e-01  -5.865291226655e-03   0.000000000000e+00  -2.010374516249e-01   1.290829852223e-03   0.000000000000e+00  -1.884852945805e-01 
 -5.851266160607e-02   0.000000000000e+00  -1.981530636549e-01   6.753426045179e-02   0.000000000000e+00  -1.425308287144e-01   1.886971853673e-02   0.000000000000e+00  -1.494957357645e-01 
  1.053360253572e-01   0.000000000000e+00  -1.295120567083e-01   8.206765353680e-02   0.000000000000e+00  -1.374955475330e-01   8.206765353680e-02   0.000000000000e+00  -1.374955475330e-01 
  0.000000000000e+00   0.000000000000e+00  -1.878543049097e-01   0.000000000000e+00   0.000000000000e+00  -1.878543049097e-01  -5.865291226655e-03   0.000000000000e+00  -2.010374516249e-01 
  1.290829852223e-03   0.000000000000e+00  -1.884852945805e-01  -5.851266160607e-02   0.000000000000e+00  -1.981530636549e-01   6.753426045179e-02   0.000000000000e+00  -1.425308287144e-01 
  1.886971853673e-02   0.000000000000e+00  -1.494957357645e-01   1.053360253572e-01   0.000000000000e+00  -1.295120567083e-01   8.206765353680e-02   0.000000000000e+00  -1.374955475330e-01 
  8.206765353680e-02   0.000000000000e+00  -1.374955475330e-01   0.000000000000e+00  -1.005066186190e-01  -2.233785539865e-01   0.000000000000e+00  -1.005066186190e-01  -2.233785539865e-01 
 -1.363994553685e-03  -1.147066429257e-01  -1.992519348860e-01   1.401570998132e-02  -6.760942935944e-02  -1.498364657164e-01  -2.257054485381e-02  -4.872393235564e-02  -1.402953267097e-01 
 -7.846610993147e-02  -5.382226407528e-02  -1.357173323631e-01  -1.209633722901e-01  -9.481051564217e-02  -1.693948358297e-01  -1.038975343108e-01  -8.914440870285e-02  -1.722829788923e-01 
 -1.378140747547e-01  -9.803047031164e-02  -1.957953274250e-01  -1.378140747547e-01  -9.803047031164e-02  -1.957953274250e-01   0.000000000000e+00  -1.005066186190e-01  -2.233785539865e-01 
  0.000000000000e+00  -1.005066186190e-01  -2.233785539865e-01  -1.363994553685e-03  -1.147066429257e-01  -1.992519348860e-01   1.401570998132e-02  -6.760942935944e-02  -1.498364657164e-01 
 -2.257054485381e-02  -4.872393235564e-02  -1.402953267097e-01  -7.846610993147e-02  -5.382226407528e-02  -1.357173323631e-01  -1.209633722901e-01  -9.481051564217e-02  -1.693948358297e-01 
 -1.038975343108e-01  -8.914440870285e-02  -1.722829788923e-01  -1.378140747547e-01  -9.803047031164e-02  -1.957953274250e-01  -1.378140747547e-01  -9.803047031164e-02  -1.957953274250e-01 
  0.000000000000e+00   5.825751274824e-02  -1.869933158159e-01   0.000000000000e+00   5.825751274824e-02  -1.869933158159e-01  -8.518607914448e-02   1.788073964417e-02  -1.893076151609e-01 
 -4.359792172909e-02  -1.387422233820e-01  -1.694814115763e-01  -1.486369073391e-01  -2.478214204311e-01  -1.838297694921e-01   4.363209009171e-02  -9.030634164810e-02  -1.361515074968e-01 
  3.928299993277e-02  -5.418018624187e-02  -1.408826112747e-01   1.730426773429e-02  -3.180672228336e-02  -1.367034167051e-01  -3.942123055458e-02   2.696284092963e-02  -1.469066739082e-01 
 -3.942123055458e-02   2.696284092963e-02  -1.469066739082e-01   0.000000000000e+00   1.887432299554e-03  -1.878098547459e-01   0.000000000000e+00   1.887432299554e-03  -1.878098547459e-01 
 -2.468196116388e-02   8.104962110519e-02  -1.682016998529e-01  -7.246299646795e-03   7.905596494675e-02  -1.418020129204e-01  -2.871289290488e-02  -4.830821976066e-02  -1.476062238216e-01 
 -8.046545833349e-02  -1.354653686285e-01  -1.501955389977e-01  -1.942619383335e-01  -6.086422875524e-02  -1.885122060776e-01   3.489750996232e-02   4.094251617789e-02  -1.292394548655e-01 
  5.762622132897e-02   4.745316132903e-02  -1.188358366489e-01   5.762622132897e-02   4.745316132903e-02  -1.188358366489e-01   0.000000000000e+00  -8.178243041039e-02  -2.348952442408e-01 
  0.000000000000e+00  -8.178243041039e-02  -2.348952442408e-01  -5.071462690830e-02  -2.370410040021e-02  -2.531712353230e-01   1.690970659256e-01  -6.549459882081e-03  -1.720992177725e-01 
  6.294170767069e-02  -1.369388215244e-02  -1.411081850529e-01  -7.563875615597e-02   2.215993963182e-02  -1.332389265299e-01  -1.837252825499e-01   3.561417339370e-03  -1.545391976833e-01 
 -7.099293917418e-02  -5.726302042603e-02  -1.525831669569e-01  -3.860211372375e-02  -8.354260027409e-02  -1.845061779022e-01  -3.860211372375e-02  -8.354260027409e-02  -1.845061779022e-01 
  0.000000000000e+00   3.429896384478e-02  -1.847823709249e-01   0.000000000000e+00   3.429896384478e-02  -1.847823709249e-01  -2.032505348325e-02  -3.203728422523e-02  -1.953240334988e-01 
  6.104307249188e-02  -2.904552733526e-03  -1.944160312414e-01  -7.350497692823e-02   1.928719505668e-02  -1.959351599216e-01   2.736922167242e-02   6.077237799764e-02  -1.376553922892e-01 
 -1.620893180370e-02   1.846098154783e-02  -1.389306038618e-01  -1.026261504740e-02  -2.790945395827e-02  -1.363018900156e-01  -4.700189456344e-03  -6.861069798470e-02  -1.499571353197e-01 
 -4.700189456344e-03  -6.861069798470e-02  -1.499571353197e-01   0.000000000000e+00   6.154489889741e-02  -1.783367097378e-01   0.000000000000e+00   6.154489889741e-02  -1.783367097378e-01 
 -1.209992915392e-02  -3.476056456566e-02  -1.695388406515e-01  -8.448241278529e-03   3.524400666356e-02  -1.519940495491e-01  -7.122347503901e-02   6.882187724113e-02  -1.591501832008e-01 
 -1.280309408903e-01   2.266942709684e-02  -1.671661287546e-01  -5.849124491215e-02  -1.275135483593e-02  -1.937301903963e-01   7.047666609287e-02   6.938388571143e-03  -1.382488012314e-01 
  1.131635606289e-01  -1.054876446724e-01  -1.447274237871e-01   1.131635606289e-01  -1.054876446724e-01  -1.447274237871e-01   0.000000000000e+00   1.137979701161e-01  -2.210346758366e-01 
  0.000000000000e+00   1.137979701161e-01  -2.210346758366e-01  -5.576402693987e-02  -1.595878042281e-02  -2.235914617777e-01   5.197085440159e-02  -2.971705794334e-02  -1.534485220909e-01 
  1.140131987631e-02  -2.774708904326e-03  -1.467659771442e-01  -6.414271891117e-02   6.310937553644e-02  -1.409880667925e-01  -2.990211173892e-02   9.761196374893e-02  -1.487092673779e-01 
  7.386881113052e-02   4.590597748756e-02  -1.554218977690e-01   1.592319086194e-02  -1.433659940958e-01  -2.271166145802e-01   1.592319086194e-02  -1.433659940958e-01  -2.271166145802e-01 
  0.000000000000e+00   0.000000000000e+00  -1.878543049097e-01   0.000000000000e+00   0.000000000000e+00  -1.878543049097e-01  -5.865291226655e-03   0.000000000000e+00  -2.010374516249e-01 
  1.290829852223e-03   0.000000000000e+00  -1.884852945805e-01  -5.851266160607e-02   0.000000000000e+00  -1.981530636549e-01   6.753426045179e-02   0.000000000000e+00  -1.425308287144e-01 
  1.886971853673e-02   0.000000000000e+00  -1.494957357645e-01   1.053360253572e-01   0.000000000000e+00  -1.295120567083e-01   8.206765353680e-02   0.000000000000e+00  -1.374955475330e-01 
  8.206765353680e-02   0.000000000000e+00  -1.374955475330e-01   0.000000000000e+00   0.000000000000e+00  -1.878543049097e-01   0.000000000000e+00   0.000000000000e+00  -1.878543049097e-01 
 -5.865291226655e-03   0.000000000000e+00  -2.010374516249e-01   1.290829852223e-03   0.000000000000e+00  -1.884852945805e-01  -5.851266160607e-02   0.000000000000e+00  -1.981530636549e-01 
  6.753426045179e-02   0.000000000000e+00  -1.425308287144e-01   1.886971853673e-02   0.000000000000e+00  -1.494957357645e-01   1.053360253572e-01   0.000000000000e+00  -1.295120567083e-01 
  8.206765353680e-02   0.000000000000e+00  -1.374955475330e-01   8.206765353680e-02   0.000000000000e+00  -1.374955475330e-01   0.000000000000e+00  -5.789983645082e-02  -5.874609947205e-01 
  0.000000000000e+00  -5.789983645082e-02  -5.874609947205e-01   3.205134570599e-01  -1.884316094220e-02  -2.906368672848e-01   5.640625357628e-01  -1.047909166664e-02  -6.553511023521e-01 
  1.148348450661e-01  -6.639584153891e-02  -5.898756384850e-01  -7.916514575481e-02   2.950005047023e-02  -1.034936785698e+00  -1.021284088492e-01   9.753002971411e-02  -8.014785051346e-01 
 -2.742996998131e-02   4.011835530400e-02  -7.072331309319e-01   1.256040576845e-02  -1.829564332962e+00  -4.212298393250e-01   1.256040576845e-02  -1.829564332962e+00  -4.212298393250e-01 
  0.000000000000e+00  -5.789983645082e-02  -5.874609947205e-01   0.000000000000e+00  -5.789983645082e-02  -5.874609947205e-01   3.205134570599e-01  -1.884316094220e-02  -2.906368672848e-01 
  5.640625357628e-01  -1.047909166664e-02  -6.553511023521e-01   1.148348450661e-01  -6.639584153891e-02  -5.898756384850e-01  -7.916514575481e-02   2.950005047023e-02  -1.034936785698e+00 
 -1.021284088492e-01   9.753002971411e-02  -8.014785051346e-01  -2.742996998131e-02   4.011835530400e-02  -7.072331309319e-01   1.256040576845e-02  -1.829564332962e+00  -4.212298393250e-01 
  1.256040576845e-02  -1.829564332962e+00  -4.212298393250e-01   0.000000000000e+00   9.083798527718e-02  -5.015095472336e-01   0.000000000000e+00   9.083798527718e-02  -5.015095472336e-01 
  1.727486252785e-01   6.961283832788e-02  -2.752997279167e-01   5.646442174911e-01  -3.435442969203e-02  -7.206934690475e-01   3.286816552281e-02  -1.939887106419e-01  -3.267698884010e-01 
  3.542121946812e-01  -2.794735832140e-03  -2.488677352667e-01   5.077229142189e-01   1.722284704447e-01   1.645459681749e-01   1.171419546008e-01   4.203870519996e-02  -6.329658627510e-02 
  3.287706291303e-03  -1.560941934586e+00  -5.309331789613e-02   3.287706291303e-03  -1.560941934586e+00  -5.309331789613e-02   0.000000000000e+00  -8.378055877984e-03  -6.758430004120e-01 
  0.000000000000e+00  -8.378055877984e-03  -6.758430004120e-01   2.841061651707e-01  -4.854222387075e-02  -5.766723155975e-01   6.070927381516e-01   1.978585310280e-02  -8.955156207085e-01 
  1.527252346277e-01  -2.215142361820e-02  -4.967120885849e-01   8.191680908203e-01  -2.171914326027e-03  -2.742110490799e-01   1.444602727890e+00  -4.130012542009e-02  -3.745427727699e-01 
  3.485207259655e-02  -5.626443028450e-02  -3.843035995960e-01   7.803263515234e-02  -2.445155829191e-01   3.206166327000e-01   7.803263515234e-02  -2.445155829191e-01   3.206166327000e-01 
  0.000000000000e+00   3.081208467484e-02  -6.586476564407e-01   0.000000000000e+00   3.081208467484e-02  -6.586476564407e-01   3.100079298019e-01   1.390685737133e-01  -3.522391915321e-01 
  5.478847622871e-01   6.639586389065e-02  -6.013247966766e-01   3.225052654743e-01   2.855847962201e-02  -1.885438561440e-01   4.080040156841e-01   2.033983916044e-01  -2.617748379707e-01 
  1.657001823187e-01   3.471331438050e-03  -4.294541180134e-01   2.296361140907e-02  -1.999017596245e-02  -1.011644080281e-01   1.109339445829e-01   1.699608378112e-02   1.837856620550e-01 
  1.109339445829e-01   1.699608378112e-02   1.837856620550e-01   0.000000000000e+00  -5.812835693359e-02  -9.665567278862e-01   0.000000000000e+00  -5.812835693359e-02  -9.665567278862e-01 
  2.874470353127e-01   1.216492801905e-01  -6.931637525558e-01   3.800279498100e-01   6.959659606218e-02  -8.503034114838e-01   3.184579908848e-01  -1.601527482271e-01   1.096203848720e-01 
  9.082621932030e-01  -1.052114143968e-01  -1.198811363429e-02   5.132436156273e-01   6.049704924226e-02   8.313704282045e-02   1.810109913349e-01   1.690589822829e-02  -5.932846665382e-01 
 -1.107999160886e-01   6.731835752726e-02  -7.826643586159e-01  -1.107999160886e-01   6.731835752726e-02  -7.826643586159e-01   0.000000000000e+00  -1.331975217909e-02  -6.071245074272e-01 
  0.000000000000e+00  -1.331975217909e-02  -6.071245074272e-01   2.165065556765e-01   3.442064672709e-02  -4.154469072819e-01   4.146578311920e-01   3.319837898016e-02  -1.003179669380e+00 
  3.437637984753e-01  -1.146579310298e-01  -9.425806403160e-01   6.027548313141e-01  -1.352734863758e-01  -4.929398894310e-01   1.836914718151e-01  -8.605027943850e-02   4.645384475589e-02 
 -1.035880222917e-01   1.304126828909e-01  -1.968101114035e-01  -2.736087441444e-01   5.872803926468e-01  -3.923955857754e-01  -2.736087441444e-01   5.872803926468e-01  -3.923955857754e-01 
  0.000000000000e+00   1.179145351052e-01  -6.020405292511e-01   0.000000000000e+00   1.179145351052e-01  -6.020405292511e-01   3.141230344772e-01  -1.069992501289e-02  -6.058896780014e-01 
  5.440522432327e-01   9.284825064242e-04  -6.185866594315e-01   1.832433342934e-01  -1.379381865263e-02  -4.613780975342e-01   1.058869808912e-01   5.400064401329e-03  -6.937806606293e-01 
 -1.639578044415e-01  -2.071580290794e-02  -3.606301546097e-01  -4.609124734998e-02  -2.545977234840e-01  -2.362984269857e-01  -1.288427710533e-01  -1.718041151762e-01  -6.710138320923e-01 
 -1.288427710533e-01  -1.718041151762e-01  -6.710138320923e-01   0.000000000000e+00   0.000000000000e+00  -1.000357985497e+00   0.000000000000e+00   0.000000000000e+00  -1.000357985497e+00 
  5.369670987129e-01   0.000000000000e+00  -6.519709229469e-01   1.003813862801e+00   0.000000000000e+00  -3.813350498676e-01   2.849675118923e-01   0.000000000000e+00   1.393182128668e-01 
  4.460709393024e-01   5.387877877183e-08  -6.653039455414e-01  -4.320792853832e-01   0.000000000000e+00  -7.930853366852e-01  -2.860113680363e-01   0.000000000000e+00  -6.270276904106e-01 
 -1.263919193298e-02  -3.436082229018e-02  -9.677528738976e-01  -1.263919193298e-02  -3.436082229018e-02  -9.677528738976e-01   0.000000000000e+00   0.000000000000e+00  -1.000357985497e+00 
  0.000000000000e+00   0.000000000000e+00  -1.000357985497e+00   5.369670987129e-01   0.000000000000e+00  -6.519709229469e-01   1.003813862801e+00   0.000000000000e+00  -3.813350498676e-01 
  2.849675118923e-01   0.000000000000e+00   1.393182128668e-01   4.460709393024e-01   5.387877877183e-08  -6.653039455414e-01  -4.320792853832e-01   0.000000000000e+00  -7.930853366852e-01 
 -2.860113680363e-01   0.000000000000e+00  -6.270276904106e-01  -1.263919193298e-02  -3.436082229018e-02  -9.677528738976e-01  -1.263919193298e-02  -3.436082229018e-02  -9.677528738976e-01 
  0.000000000000e+00   1.075465902686e-01  -2.569079697132e-01   0.000000000000e+00   1.075465902686e-01  -2.569079697132e-01   1.409816294909e-01   4.557879641652e-02  -2.168094366789e-01 
  3.302071988583e-01   1.094903424382e-02  -3.302042484283e-01   2.120087891817e-01  -8.724621683359e-02  -6.479842662811e-01  -3.270025923848e-02   3.433791175485e-02  -1.050145983696e+00 
 -6.477919220924e-02   7.167672365904e-02  -1.070733666420e+00  -6.477919220924e-02  -1.848963022232e+00  -1.108082890511e+00   4.012171551585e-02  -2.579304933548e+00   6.893708109856e-01 
  4.012171551585e-02  -2.579304933548e+00   6.893708109856e-01   0.000000000000e+00   1.075465902686e-01  -2.569079697132e-01   0.000000000000e+00   1.075465902686e-01  -2.569079697132e-01 
  1.409816294909e-01   4.557879641652e-02  -2.168094366789e-01   3.302071988583e-01   1.094903424382e-02  -3.302042484283e-01   2.120087891817e-01  -8.724621683359e-02  -6.479842662811e-01 
 -3.270025923848e-02   3.433791175485e-02  -1.050145983696e+00  -6.477919220924e-02   7.167672365904e-02  -1.070733666420e+00  -6.477919220924e-02  -1.848963022232e+00  -1.108082890511e+00 
  4.012171551585e-02  -2.579304933548e+00   6.893708109856e-01   4.012171551585e-02  -2.579304933548e+00   6.893708109856e-01   0.000000000000e+00   7.021985948086e-02  -9.674301743507e-02 
  0.000000000000e+00   7.021985948086e-02  -9.674301743507e-02   1.467009782791e-01   5.159849766642e-03  -9.113316237926e-02   3.960842490196e-01  -3.155023232102e-02  -4.703909456730e-01 
  0.000000000000e+00   5.328828934580e-03  -2.202367484570e-01   7.816058397293e-01   2.457476593554e-02   2.624545395374e-01   7.094231247902e-01   1.086912602186e-01   1.626694053411e-01 
  1.158810257912e-01  -1.661984324455e+00   2.392722666264e-01   2.651723660529e-02  -2.468224525452e+00   7.449110746384e-01   2.651723660529e-02  -2.468224525452e+00   7.449110746384e-01 
  0.000000000000e+00   8.480847626925e-02  -3.905160129070e-01   0.000000000000e+00   8.480847626925e-02  -3.905160129070e-01   1.534634530544e-01  -9.575717151165e-02  -1.569387912750e-01 
  3.927724659443e-01  -8.140394836664e-02  -3.792689740658e-01   3.273685276508e-01   9.170875884593e-03  -1.429374814034e-01   1.050684571266e+00  -1.511745061725e-02   2.557365000248e-01 
  1.316583037376e+00  -3.415301814675e-02  -1.170874089003e-01   6.811617314816e-02  -4.368856549263e-02   2.478579618037e-02   7.813449949026e-02   0.000000000000e+00   5.708848834038e-01 
  7.813449949026e-02   0.000000000000e+00   5.708848834038e-01   0.000000000000e+00  -3.740405663848e-02  -3.455098867416e-01   0.000000000000e+00  -3.740405663848e-02  -3.455098867416e-01 
  1.904501318932e-01  -6.655547767878e-02   4.253330826759e-02   2.014874368906e-01   7.375320419669e-03  -3.794097900391e-01   2.631980478764e-01   1.591870635748e-01   4.827801510692e-02 
  1.561993241310e+00  -1.511745061725e-02   1.619199365377e-01   1.555535078049e+00   4.194403812289e-02  -3.279996812344e-01   2.078901529312e-01   2.507028728724e-02   8.304404467344e-02 
  2.325742244720e-01   9.446316957474e-02   4.342179894447e-01   2.325742244720e-01   9.446316957474e-02   4.342179894447e-01   0.000000000000e+00  -1.036485657096e-02  -3.291140496731e-01 
  0.000000000000e+00  -1.036485657096e-02  -3.291140496731e-01   2.903291583061e-01  -1.061396393925e-02  -3.400261700153e-01   1.378732025623e-01   9.580354392529e-02  -7.525461912155e-01 
  2.682123482227e-01   4.158159196377e-01   3.115746974945e-01   2.263641357422e+00   1.852182447910e-01   1.609879881144e-01   2.338462114334e+00   7.227092981339e-02  -3.744818270206e-01 
  0.000000000000e+00   3.936135768890e-02  -2.934785783291e-01  -6.114831939340e-02   9.364006668329e-02  -3.439043760300e-01  -6.114831939340e-02   9.364006668329e-02  -3.439043760300e-01 
  0.000000000000e+00  -7.133538369089e-03  -2.285441309214e-01   0.000000000000e+00  -7.133538369089e-03  -2.285441309214e-01   3.271110355854e-01  -4.170425236225e-02  -1.521632224321e-01 
  5.079534053802e-01   1.493687462062e-02  -8.197306394577e-01   4.666403532028e-01   2.746975719929e-01  -1.939115375280e-01   1.355794310570e+00   6.723307305947e-04  -5.349642038345e-02 
  1.250377297401e+00  -1.094571966678e-02   1.080859825015e-01  -2.345701307058e-01   8.159300684929e-02   3.094346821308e-01   0.000000000000e+00   3.554229736328e-01   2.312755584717e-01 
  0.000000000000e+00   3.554229736328e-01   2.312755584717e-01   0.000000000000e+00   7.345474511385e-02  -2.545630931854e-01   0.000000000000e+00   7.345474511385e-02  -2.545630931854e-01 
  1.506012678146e-01   5.881461873651e-02   4.244855046272e-02   3.398579955101e-01   3.056445345283e-02  -1.060453951359e-01   2.898820638657e-01   3.405369352549e-03  -3.974817991257e-01 
  2.948175668716e-01   3.972311504185e-03  -4.024233818054e-01  -1.646619439125e-01   3.593371436000e-02  -6.565397381783e-01  -3.501335084438e-01   0.000000000000e+00   6.217292323709e-02 
 -6.062263846397e-01   1.855062991381e-01  -4.579245746136e-01  -6.062263846397e-01   1.855062991381e-01  -4.579245746136e-01   0.000000000000e+00   0.000000000000e+00  -5.178763270378e-01 
  0.000000000000e+00   0.000000000000e+00  -5.178763270378e-01   3.995833545923e-02   0.000000000000e+00  -7.797651737928e-02   4.272645711899e-01   5.224031396210e-03  -2.783598005772e-01 
  4.242109954357e-01   1.592865330167e-03  -5.321714282036e-01   4.242109954357e-01   9.208201081492e-04  -6.213166713715e-01  -3.600032031536e-01   0.000000000000e+00  -5.924175977707e-01 
 -3.970336914062e-01   0.000000000000e+00  -4.277264773846e-01  -7.344732284546e-01   0.000000000000e+00  -1.000000014901e-01  -7.344732284546e-01   0.000000000000e+00  -1.000000014901e-01 
  0.000000000000e+00   0.000000000000e+00  -5.178763270378e-01   0.000000000000e+00   0.000000000000e+00  -5.178763270378e-01   3.995833545923e-02   0.000000000000e+00  -7.797651737928e-02 
  4.272645711899e-01   5.224031396210e-03  -2.783598005772e-01   4.242109954357e-01   1.592865330167e-03  -5.321714282036e-01   4.242109954357e-01   9.208201081492e-04  -6.213166713715e-01 
 -3.600032031536e-01   0.000000000000e+00  -5.924175977707e-01  -3.970336914062e-01   0.000000000000e+00  -4.277264773846e-01  -7.344732284546e-01   0.000000000000e+00  -1.000000014901e-01 
 -7.344732284546e-01   0.000000000000e+00  -1.000000014901e-01   0.000000000000e+00   8.478946238756e-02  -2.327813953161e-01   0.000000000000e+00   8.478946238756e-02  -2.327813953161e-01 
  1.038917452097e-01   1.775457151234e-02  -2.354956269264e-01   2.079010158777e-01  -4.918038845062e-02  -3.723907768726e-01   9.602405875921e-02  -9.826796129346e-03   4.713745713234e-01 
  6.395721808076e-03   2.170754596591e-04  -1.000000014901e-01   0.000000000000e+00   0.000000000000e+00  -1.000000014901e-01   0.000000000000e+00  -2.328903228045e-01  -1.000000014901e-01 
  0.000000000000e+00   0.000000000000e+00   8.004513382912e-01   0.000000000000e+00   0.000000000000e+00   8.004513382912e-01   0.000000000000e+00   8.478946238756e-02  -2.327813953161e-01 
  0.000000000000e+00   8.478946238756e-02  -2.327813953161e-01   1.038917452097e-01   1.775457151234e-02  -2.354956269264e-01   2.079010158777e-01  -4.918038845062e-02  -3.723907768726e-01 
  9.602405875921e-02  -9.826796129346e-03   4.713745713234e-01   6.395721808076e-03   2.170754596591e-04  -1.000000014901e-01   0.000000000000e+00   0.000000000000e+00  -1.000000014901e-01 
  0.000000000000e+00  -2.328903228045e-01  -1.000000014901e-01   0.000000000000e+00   0.000000000000e+00   8.004513382912e-01   0.000000000000e+00   0.000000000000e+00   8.004513382912e-01 
  0.000000000000e+00  -7.681699004024e-03  -2.015840560198e-01   0.000000000000e+00  -7.681699004024e-03  -2.015840560198e-01   1.259157210588e-01  -2.817128226161e-02  -2.669673264027e-01 
  2.109894305468e-01  -8.333901315928e-02  -5.275941491127e-01  -7.569003850222e-03   0.000000000000e+00   5.762682557106e-01   0.000000000000e+00   3.947114237235e-05   7.292196154594e-02 
  3.897507485817e-05   0.000000000000e+00  -1.000000014901e-01   2.143472956959e-04  -1.922642737627e-01   1.488444507122e-01   1.378073263913e-02   0.000000000000e+00   7.449110746384e-01 
  1.378073263913e-02   0.000000000000e+00   7.449110746384e-01   0.000000000000e+00   1.258132010698e-01  -2.027298808098e-01   0.000000000000e+00   1.258132010698e-01  -2.027298808098e-01 
  5.252020433545e-02  -1.253775656223e-01  -3.045141994953e-01   3.502290844917e-01  -8.401888608932e-02  -3.495228886604e-01   0.000000000000e+00   0.000000000000e+00  -2.382345646620e-01 
  3.802895545959e-01  -2.492733299732e-03  -1.000000014901e-01   8.839862942696e-01  -2.204581978731e-04  -1.862324476242e-01   3.816881477833e-01  -4.433930292726e-02  -2.294339239597e-02 
  7.751976698637e-02   0.000000000000e+00  -1.000000014901e-01   7.751976698637e-02   0.000000000000e+00  -1.000000014901e-01   0.000000000000e+00   8.514086902142e-02  -2.879595756531e-01 
  0.000000000000e+00   8.514086902142e-02  -2.879595756531e-01   6.285644322634e-02  -5.791907757521e-02  -3.649604618549e-01   5.826611816883e-02  -5.694863572717e-02  -4.923366606236e-01 
 -1.113357096910e-01   0.000000000000e+00  -2.815981209278e-01  -2.578987739980e-02   1.184448152781e-01  -2.998627722263e-01   4.839488863945e-01   1.005454957485e-01  -5.722256898880e-01 
  1.162306442857e-01   2.228027582169e-02  -7.045769691467e-02   1.343935281038e-01   0.000000000000e+00  -1.000000014901e-01   1.343935281038e-01   0.000000000000e+00  -1.000000014901e-01 
  0.000000000000e+00   1.377130299807e-02  -3.024278879166e-01   0.000000000000e+00   1.377130299807e-02  -3.024278879166e-01   2.316096276045e-01  -6.972492486238e-02  -2.318796664476e-01 
 -1.077277883887e-01   3.294306695461e-01  -7.661609649658e-01  -2.401399314404e-01   8.080263733864e-01  -2.311992645264e-01  -2.483601719141e-01   4.528169929981e-01  -5.658472776413e-01 
  0.000000000000e+00   2.059494704008e-01  -1.007456421852e+00  -2.171790599823e-01   7.922405004501e-02  -3.611052930355e-01  -3.298569023609e-01   7.897476851940e-02  -1.331724822521e-01 