# vtk DataFile Version 2.0
Written using VisIt writer
ASCII
DATASET RECTILINEAR_GRID
DIMENSIONS 10 10 10
X_COORDINATES 10 float
  0.000000000000e+00   5.000000000000e-01   1.000000000000e+00   1.500000000000e+00   2.000000000000e+00   2.500000000000e+00   3.000000000000e+00   3.500000000000e+00   4.000000000000e+00 
  4.500000000000e+00 
Y_COORDINATES 10 float
  0.000000000000e+00   5.000000000000e-01   1.000000000000e+00   1.500000000000e+00   2.000000000000e+00   2.500000000000e+00   3.000000000000e+00   3.500000000000e+00   4.000000000000e+00 
  4.500000000000e+00 
Z_COORDINATES 10 float
  0.000000000000e+00   5.000000000000e-01   1.000000000000e+00   1.500000000000e+00   2.000000000000e+00   2.500000000000e+00   3.000000000000e+00   3.500000000000e+00   4.000000000000e+00 
  4.500000000000e+00 
CELL_DATA 729
POINT_DATA 1000
VECTORS velocity float
  0.000000000000e+00  -9.654495120049e-02  -1.964605599642e-01   3.251200000000e+04   0.000000000000e+00   0.000000000000e+00   0.000000000000e+00   0.000000000000e+00   0.000000000000e+00 
  1.710971891880e-01  -4.658878967166e-02  -1.386163532734e-01   0.000000000000e+00   0.000000000000e+00   0.000000000000e+00   0.000000000000e+00   1.431655808000e+09   1.070945600000e+09 
  1.568386107683e-01  -7.459087669849e-02  -1.566535681486e-01   1.071994176000e+09   0.000000000000e+00   0.000000000000e+00   0.000000000000e+00   0.000000000000e+00   0.000000000000e+00 
  1.400622427464e-01  -9.938694536686e-02  -1.855802237988e-01   0.000000000000e+00  -9.654495120049e-02  -1.964605599642e-01   1.070945600000e+09   0.000000000000e+00   0.000000000000e+00 
  5.568284168839e-02  -9.082799404860e-02  -1.819254755974e-01   1.710971891880e-01  -4.658878967166e-02  -1.386163532734e-01   1.431655808000e+09   1.070945600000e+09   0.000000000000e+00 
  1.561411321163e-01  -3.992715105414e-02  -1.278421729803e-01   1.568386107683e-01  -7.459087669849e-02  -1.566535681486e-01   0.000000000000e+00   0.000000000000e+00   1.071644672000e+09 
  1.400622427464e-01  -9.938694536686e-02  -1.855802237988e-01   1.400622427464e-01  -9.938694536686e-02  -1.855802237988e-01   0.000000000000e+00  -4.194092471153e-03  -1.562037914991e-01 
  0.000000000000e+00  -4.194092471153e-03  -1.562037914991e-01  -2.930851466954e-02  -1.851452738047e-01  -1.719275712967e-01   6.034131720662e-02  -2.742937207222e-01  -1.663296669722e-01 
  8.198450505733e-02  -1.990417540073e-01  -1.761205494404e-01   1.152130886912e-01  -1.022848486900e-01  -1.381598860025e-01   9.006965905428e-02  -1.879887282848e-02  -1.379827111959e-01 
  1.058975905180e-01   6.324142962694e-02  -1.341070234776e-01   1.339224725962e-01  -7.196321152151e-03  -1.476416736841e-01   1.339224725962e-01  -7.196321152151e-03  -1.476416736841e-01 
  0.000000000000e+00   4.102363437414e-02  -1.433770507574e-01   0.000000000000e+00   4.102363437414e-02  -1.433770507574e-01   8.110208064318e-02   2.453198656440e-02  -1.348742842674e-01 
 -8.033990859985e-03   6.512917578220e-02  -1.270811557770e-01   5.585189163685e-02   6.775905191898e-02  -1.341830343008e-01   1.658576875925e-01  -6.580606102943e-02  -1.410758048296e-01 
  9.542357176542e-02  -3.762864693999e-02  -1.802804768085e-01   1.788867413998e-01   4.077961295843e-02  -1.379254162312e-01   1.847908347845e-01  -2.889235690236e-02  -1.355581432581e-01 
  1.847908347845e-01  -2.889235690236e-02  -1.355581432581e-01   0.000000000000e+00   1.229751389474e-02  -1.786212176085e-01   0.000000000000e+00   1.229751389474e-02  -1.786212176085e-01 
 -1.178159192204e-02  -2.277920255437e-03  -1.936513781548e-01   4.325263947248e-02   3.711899742484e-02  -1.403575837612e-01   8.419636636972e-02  -1.696733012795e-02  -1.414188742638e-01 
  1.184630841017e-01  -2.612658543512e-03  -1.293274164200e-01   1.067631840706e-01  -1.212873216718e-02  -1.486934423447e-01   1.516930162907e-01  -2.176210284233e-02  -1.537947058678e-01 
  1.184703111649e-01  -5.522613972425e-02  -1.821111142635e-01   1.184703111649e-01  -5.522613972425e-02  -1.821111142635e-01   0.000000000000e+00  -8.828642219305e-02  -1.693508774042e-01 
  0.000000000000e+00  -8.828642219305e-02  -1.693508774042e-01   6.063042208552e-02  -4.432393237948e-02  -1.699999272823e-01   5.904604494572e-02  -1.016071885824e-01  -1.683850586414e-01 
  1.878875494003e-02  -1.859349757433e-01  -1.993657648563e-01   1.461772769690e-01  -9.767700731754e-02  -1.414728313684e-01   1.000713184476e-01  -2.875658869743e-02  -1.367267668247e-01 
  1.138873249292e-01   1.083493325859e-02  -1.314594745636e-01   2.111209034920e-01   1.295613795519e-01  -1.394543349743e-01   2.111209034920e-01   1.295613795519e-01  -1.394543349743e-01 
  0.000000000000e+00  -9.637811779976e-02  -1.825137883425e-01   0.000000000000e+00  -9.637811779976e-02  -1.825137883425e-01   8.659373968840e-02  -6.443367898464e-02  -1.704310476780e-01 
  4.631707817316e-02  -1.678990386426e-02  -1.603235155344e-01   6.226088851690e-03   3.061359189451e-02  -1.689967513084e-01   1.551849693060e-01  -1.024546027184e-01  -1.584475785494e-01 
  6.458383053541e-02  -1.061152592301e-01  -1.817760467529e-01   1.323456913233e-01  -7.431662827730e-02  -1.400524824858e-01   2.089157700539e-01  -1.049186196178e-02  -1.381678730249e-01 
  2.089157700539e-01  -1.049186196178e-02  -1.381678730249e-01   0.000000000000e+00  -1.671944856644e-01  -2.366169393063e-01   0.000000000000e+00  -1.671944856644e-01  -2.366169393063e-01 
 -5.449230223894e-02  -1.103711500764e-01  -2.385184317827e-01   1.055823937058e-01  -3.111986070871e-02  -1.830894500017e-01   3.533127903938e-02   1.384452264756e-02  -1.696237027645e-01 
  1.896444261074e-01   2.282441779971e-02  -1.310695707798e-01   1.042446941137e-01  -1.032925304025e-02  -1.471308916807e-01   1.359579712152e-01  -1.344734430313e-01  -1.600090265274e-01 
  2.081226557493e-01  -1.578197628260e-01  -1.964030563831e-01   2.081226557493e-01  -1.578197628260e-01  -1.964030563831e-01   0.000000000000e+00   0.000000000000e+00  -1.814587265253e-01 
  0.000000000000e+00   0.000000000000e+00  -1.814587265253e-01  -7.165829092264e-02   0.000000000000e+00  -1.991807520390e-01   7.941430062056e-02   0.000000000000e+00  -1.682398468256e-01 
  4.016431793571e-02   0.000000000000e+00  -2.074002623558e-01   2.265265285969e-01   0.000000000000e+00  -1.311651468277e-01   2.073266506195e-01   0.000000000000e+00  -1.197535768151e-01 
  1.564940810204e-01   0.000000000000e+00  -1.212421655655e-01   2.955248355865e-01   0.000000000000e+00  -1.255301684141e-01   2.955248355865e-01   0.000000000000e+00  -1.255301684141e-01 
  0.000000000000e+00   0.000000000000e+00  -1.814587265253e-01   0.000000000000e+00   0.000000000000e+00  -1.814587265253e-01  -7.165829092264e-02   0.000000000000e+00  -1.991807520390e-01 
  7.941430062056e-02   0.000000000000e+00  -1.682398468256e-01   4.016431793571e-02   0.000000000000e+00  -2.074002623558e-01   2.265265285969e-01   0.000000000000e+00  -1.311651468277e-01 
  2.073266506195e-01   0.000000000000e+00  -1.197535768151e-01   1.564940810204e-01   0.000000000000e+00  -1.212421655655e-01   2.955248355865e-01   0.000000000000e+00  -1.255301684141e-01 
  2.955248355865e-01   0.000000000000e+00  -1.255301684141e-01   0.000000000000e+00  -9.654495120049e-02  -1.964605599642e-01   0.000000000000e+00  -9.654495120049e-02  -1.964605599642e-01 
  5.568284168839e-02  -9.082799404860e-02  -1.819254755974e-01   1.710971891880e-01  -4.658878967166e-02  -1.386163532734e-01   1.061173006892e-01  -4.090635851026e-02  -1.336438208818e-01 
  1.561411321163e-01  -3.992715105414e-02  -1.278421729803e-01   1.568386107683e-01  -7.459087669849e-02  -1.566535681486e-01   1.299705952406e-01  -7.382035255432e-02  -1.690471917391e-01 
  1.400622427464e-01  -9.938694536686e-02  -1.855802237988e-01   1.400622427464e-01  -9.938694536686e-02  -1.855802237988e-01   0.000000000000e+00  -9.654495120049e-02  -1.964605599642e-01 
  0.000000000000e+00  -9.654495120049e-02  -1.964605599642e-01   5.568284168839e-02  -9.082799404860e-02  -1.819254755974e-01   1.710971891880e-01  -4.658878967166e-02  -1.386163532734e-01 
  1.061173006892e-01  -4.090635851026e-02  -1.336438208818e-01   1.561411321163e-01  -3.992715105414e-02  -1.278421729803e-01   1.568386107683e-01  -7.459087669849e-02  -1.566535681486e-01 
  1.299705952406e-01  -7.382035255432e-02  -1.690471917391e-01   1.400622427464e-01  -9.938694536686e-02  -1.855802237988e-01   1.400622427464e-01  -9.938694536686e-02  -1.855802237988e-01 
  0.000000000000e+00  -4.194092471153e-03  -1.562037914991e-01   0.000000000000e+00  -4.194092471153e-03  -1.562037914991e-01  -2.930851466954e-02  -1.851452738047e-01  -1.719275712967e-01 
  6.034131720662e-02  -2.742937207222e-01  -1.663296669722e-01   8.198450505733e-02  -1.990417540073e-01  -1.761205494404e-01   1.152130886912e-01  -1.022848486900e-01  -1.381598860025e-01 
  9.006965905428e-02  -1.879887282848e-02  -1.379827111959e-01   1.058975905180e-01   6.324142962694e-02  -1.341070234776e-01   1.339224725962e-01  -7.196321152151e-03  -1.476416736841e-01 
  1.339224725962e-01  -7.196321152151e-03  -1.476416736841e-01   0.000000000000e+00   4.102363437414e-02  -1.433770507574e-01   0.000000000000e+00   4.102363437414e-02  -1.433770507574e-01 
  8.110208064318e-02   2.453198656440e-02  -1.348742842674e-01  -8.033990859985e-03   6.512917578220e-02  -1.270811557770e-01   5.585189163685e-02   6.775905191898e-02  -1.341830343008e-01 
  1.658576875925e-01  -6.580606102943e-02  -1.410758048296e-01   9.542357176542e-02  -3.762864693999e-02  -1.802804768085e-01   1.788867413998e-01   4.077961295843e-02  -1.379254162312e-01 
  1.847908347845e-01  -2.889235690236e-02  -1.355581432581e-01   1.847908347845e-01  -2.889235690236e-02  -1.355581432581e-01   0.000000000000e+00   1.229751389474e-02  -1.786212176085e-01 
  0.000000000000e+00   1.229751389474e-02  -1.786212176085e-01  -1.178159192204e-02  -2.277920255437e-03  -1.936513781548e-01   4.325263947248e-02   3.711899742484e-02  -1.403575837612e-01 
  8.419636636972e-02  -1.696733012795e-02  -1.414188742638e-01   1.184630841017e-01  -2.612658543512e-03  -1.293274164200e-01   1.067631840706e-01  -1.212873216718e-02  -1.486934423447e-01 
  1.516930162907e-01  -2.176210284233e-02  -1.537947058678e-01   1.184703111649e-01  -5.522613972425e-02  -1.821111142635e-01   1.184703111649e-01  -5.522613972425e-02  -1.821111142635e-01 
  0.000000000000e+00  -8.828642219305e-02  -1.693508774042e-01   0.000000000000e+00  -8.828642219305e-02  -1.693508774042e-01   6.063042208552e-02  -4.432393237948e-02  -1.699999272823e-01 
  5.904604494572e-02  -1.016071885824e-01  -1.683850586414e-01   1.878875494003e-02  -1.859349757433e-01  -1.993657648563e-01   1.461772769690e-01  -9.767700731754e-02  -1.414728313684e-01 
  1.000713184476e-01  -2.875658869743e-02  -1.367267668247e-01   1.138873249292e-01   1.083493325859e-02  -1.314594745636e-01   2.111209034920e-01   1.295613795519e-01  -1.394543349743e-01 
  2.111209034920e-01   1.295613795519e-01  -1.394543349743e-01   0.000000000000e+00  -9.637811779976e-02  -1.825137883425e-01   0.000000000000e+00  -9.637811779976e-02  -1.825137883425e-01 
  8.659373968840e-02  -6.443367898464e-02  -1.704310476780e-01   4.631707817316e-02  -1.678990386426e-02  -1.603235155344e-01   6.226088851690e-03   3.061359189451e-02  -1.689967513084e-01 
  1.551849693060e-01  -1.024546027184e-01  -1.584475785494e-01   6.458383053541e-02  -1.061152592301e-01  -1.817760467529e-01   1.323456913233e-01  -7.431662827730e-02  -1.400524824858e-01 
  2.089157700539e-01  -1.049186196178e-02  -1.381678730249e-01   2.089157700539e-01  -1.049186196178e-02  -1.381678730249e-01   0.000000000000e+00  -1.671944856644e-01  -2.366169393063e-01 
  0.000000000000e+00  -1.671944856644e-01  -2.366169393063e-01  -5.449230223894e-02  -1.103711500764e-01  -2.385184317827e-01   1.055823937058e-01  -3.111986070871e-02  -1.830894500017e-01 
  3.533127903938e-02   1.384452264756e-02  -1.696237027645e-01   1.896444261074e-01   2.282441779971e-02  -1.310695707798e-01   1.042446941137e-01  -1.032925304025e-02  -1.471308916807e-01 
  1.359579712152e-01  -1.344734430313e-01  -1.600090265274e-01   2.081226557493e-01  -1.578197628260e-01  -1.964030563831e-01   2.081226557493e-01  -1.578197628260e-01  -1.964030563831e-01 
  0.000000000000e+00   0.000000000000e+00  -1.814587265253e-01   0.000000000000e+00   0.000000000000e+00  -1.814587265253e-01  -7.165829092264e-02   0.000000000000e+00  -1.991807520390e-01 
  7.941430062056e-02   0.000000000000e+00  -1.682398468256e-01   4.016431793571e-02   0.000000000000e+00  -2.074002623558e-01   2.265265285969e-01   0.000000000000e+00  -1.311651468277e-01 
  2.073266506195e-01   0.000000000000e+00  -1.197535768151e-01   1.564940810204e-01   0.000000000000e+00  -1.212421655655e-01   2.955248355865e-01   0.000000000000e+00  -1.255301684141e-01 
  2.955248355865e-01   0.000000000000e+00  -1.255301684141e-01   0.000000000000e+00   0.000000000000e+00  -1.814587265253e-01   0.000000000000e+00   0.000000000000e+00  -1.814587265253e-01 
 -7.165829092264e-02   0.000000000000e+00  -1.991807520390e-01   7.941430062056e-02   0.000000000000e+00  -1.682398468256e-01   4.016431793571e-02   0.000000000000e+00  -2.074002623558e-01 
  2.265265285969e-01   0.000000000000e+00  -1.311651468277e-01   2.073266506195e-01   0.000000000000e+00  -1.197535768151e-01   1.564940810204e-01   0.000000000000e+00  -1.212421655655e-01 
  2.955248355865e-01   0.000000000000e+00  -1.255301684141e-01   2.955248355865e-01   0.000000000000e+00  -1.255301684141e-01   0.000000000000e+00  -1.122568249702e-01  -3.776613175869e-01 
  0.000000000000e+00  -1.122568249702e-01  -3.776613175869e-01   4.262630641460e-01  -1.315622776747e-01  -8.935986459255e-02   9.718983173370e-01  -7.447143644094e-02  -5.436666607857e-01 
  2.987212240696e-01  -7.071004062891e-02  -5.723631381989e-01   1.786022484303e-01  -5.168009549379e-02  -3.814765512943e-01   1.550439149141e-01  -2.757049351931e-02  -4.334642738104e-02 
  1.299740970135e-01   9.718161076307e-03  -9.988534450531e-01   1.400622427464e-01  -2.841992676258e-02  -9.826294779778e-01   1.400622427464e-01  -2.841992676258e-02  -9.826294779778e-01 
  0.000000000000e+00  -1.122568249702e-01  -3.776613175869e-01   0.000000000000e+00  -1.122568249702e-01  -3.776613175869e-01   4.262630641460e-01  -1.315622776747e-01  -8.935986459255e-02 
  9.718983173370e-01  -7.447143644094e-02  -5.436666607857e-01   2.987212240696e-01  -7.071004062891e-02  -5.723631381989e-01   1.786022484303e-01  -5.168009549379e-02  -3.814765512943e-01 
  1.550439149141e-01  -2.757049351931e-02  -4.334642738104e-02   1.299740970135e-01   9.718161076307e-03  -9.988534450531e-01   1.400622427464e-01  -2.841992676258e-02  -9.826294779778e-01 
  1.400622427464e-01  -2.841992676258e-02  -9.826294779778e-01   0.000000000000e+00   8.932811766863e-02  -5.633060932159e-01   0.000000000000e+00   8.932811766863e-02  -5.633060932159e-01 
  2.079733461142e-01   1.427425146103e-01  -2.355061024427e-01   1.611550897360e-01  -1.059138625860e-01  -5.689122080803e-01   3.157591223717e-01  -1.696845740080e-01  -2.301900237799e-01 
  2.839318513870e-01  -1.087966412306e-01  -1.934922784567e-01   8.889213949442e-02  -2.137931622565e-02  -6.201728805900e-02   1.332603842020e-01   6.315512955189e-02  -1.053125858307e+00 
  1.343939304352e-01  -7.196242921054e-03  -1.035039067268e+00   1.343939304352e-01  -7.196242921054e-03  -1.035039067268e+00   0.000000000000e+00   1.351574361324e-01  -5.252522826195e-01 
  0.000000000000e+00   1.351574361324e-01  -5.252522826195e-01   1.070086658001e-01   4.207953065634e-02  -5.391153693199e-01   1.849584095180e-02   1.364053599536e-02  -7.195205688477e-01 
  7.443843483925e-01  -7.043996453285e-02  -6.210418939590e-01   5.632759928703e-01  -6.250351667404e-02  -4.652087390423e-01   0.000000000000e+00  -4.037113115191e-02  -1.971952617168e-02 
  1.815922617912e+00   1.480361372232e-01  -1.071335792542e+00   1.819299697876e+00  -2.887313626707e-02  -1.072859168053e+00   1.819299697876e+00  -2.887313626707e-02  -1.072859168053e+00 
  0.000000000000e+00  -3.100024908781e-02  -7.982782125473e-01   0.000000000000e+00  -3.100024908781e-02  -7.982782125473e-01   1.157724186778e-01  -3.070744313300e-02  -6.321510672569e-01 
  2.503970861435e-01  -1.909941551276e-03  -7.665197253227e-01   3.969117403030e-01  -7.815907150507e-02  -7.884857654572e-01   4.038121402264e-01  -3.507168963552e-02  -6.637780070305e-01 
  1.161437705159e-01  -1.597731187940e-02  -5.130655318499e-02   3.075863599777e+00   4.449102282524e-02  -4.620528966188e-02   3.181672096252e+00  -5.521665140986e-02  -1.788887940347e-02 
  3.181672096252e+00  -5.521665140986e-02  -1.788887940347e-02   0.000000000000e+00   1.440975517035e-01  -7.266936302185e-01   0.000000000000e+00   1.440975517035e-01  -7.266936302185e-01 
  1.511476933956e-01  -8.187831193209e-02  -7.069265842438e-01   3.812624514103e-01   8.038228005171e-02  -3.161493688822e-02   1.343026310205e-01   8.382871001959e-02  -2.866944074631e-01 
  3.004168868065e-01  -1.129852328449e-02  -3.706169426441e-01   1.474113911390e-01  -2.733640931547e-02  -6.327322870493e-02   1.149928942323e-01   5.156145244837e-02  -6.854052096605e-02 
  2.110669463873e-01   1.295277029276e-01  -6.054566055536e-02   2.110669463873e-01   1.295277029276e-01  -6.054566055536e-02   0.000000000000e+00  -1.899410970509e-02  -1.140256643295e+00 
  0.000000000000e+00  -1.899410970509e-02  -1.140256643295e+00   1.579166352749e-01  -9.924630075693e-02  -1.013055920601e+00   3.954306542873e-01   4.775487184525e-01  -1.104553222656e+00 
 -2.862837351859e-02   3.039980232716e-01  -2.363136559725e-01   8.945421874523e-02   1.007717177272e-01  -6.013849973679e-01   7.046050578356e-02  -6.239489465952e-02  -7.268943786621e-01 
  1.303048133850e-01  -7.392984628677e-02  -5.994752049446e-02   2.088716477156e-01  -1.052746549249e-02  -6.183211877942e-02   2.088716477156e-01  -1.052746549249e-02  -6.183211877942e-02 
  0.000000000000e+00  -9.181562066078e-02  -9.253621697426e-01   0.000000000000e+00  -9.181562066078e-02  -9.253621697426e-01   2.541152834892e-01   9.315809607506e-02  -9.485411047935e-01 
  4.808373749256e-01   9.733631461859e-02  -1.286852121353e+00  -2.865080237389e-01   4.323825612664e-02  -1.060627460480e+00   5.707781910896e-01   3.303133696318e-02  -6.863983273506e-01 
  2.144828587770e-01  -1.166081870906e-03  -7.608367800713e-01   1.385475993156e-01  -1.301485002041e-01  -3.999096900225e-02   2.080835998058e-01  -1.578042358160e-01  -9.817311763763e-01 
  2.080835998058e-01  -1.578042358160e-01  -9.817311763763e-01   0.000000000000e+00   0.000000000000e+00  -9.298194050789e-01   0.000000000000e+00   0.000000000000e+00  -9.298194050789e-01 
  1.465378254652e-01   0.000000000000e+00  -7.759520411491e-01   3.249612748623e-01   0.000000000000e+00  -1.019232034683e+00   5.670136585832e-02   0.000000000000e+00  -1.079618692398e+00 
  3.721108734608e-01   0.000000000000e+00  -9.307833313942e-01   2.462638467550e-01   0.000000000000e+00  -8.024641871452e-02   1.594545394182e-01   0.000000000000e+00  -7.875783741474e-02 
  2.954484522343e-01   0.000000000000e+00  -1.202983260155e+00   2.954484522343e-01   0.000000000000e+00  -1.202983260155e+00   0.000000000000e+00   0.000000000000e+00  -9.298194050789e-01 
  0.000000000000e+00   0.000000000000e+00  -9.298194050789e-01   1.465378254652e-01   0.000000000000e+00  -7.759520411491e-01   3.249612748623e-01   0.000000000000e+00  -1.019232034683e+00 
  5.670136585832e-02   0.000000000000e+00  -1.079618692398e+00   3.721108734608e-01   0.000000000000e+00  -9.307833313942e-01   2.462638467550e-01   0.000000000000e+00  -8.024641871452e-02 
  1.594545394182e-01   0.000000000000e+00  -7.875783741474e-02   2.954484522343e-01   0.000000000000e+00  -1.202983260155e+00   2.954484522343e-01   0.000000000000e+00  -1.202983260155e+00 
  0.000000000000e+00   5.922874808311e-02  -3.090447485447e-01   0.000000000000e+00   5.922874808311e-02  -3.090447485447e-01   1.553944498301e-01   5.812944844365e-02  -3.444762527943e-01 
  5.160737633705e-01   8.255081623793e-02   1.599630117416e-01   5.392317175865e-01  -1.955388188362e-01  -3.265165388584e-01   8.277803659439e-01  -1.508305221796e-01  -1.000000014901e-01 
  8.302539587021e-01  -1.396358162165e-01  -6.343939900398e-02   1.003747463226e+00   1.014598063193e-03  -1.420674800873e+00   6.919468641281e-01  -1.666784100235e-02  -1.118598461151e+00 
  6.919468641281e-01  -1.666784100235e-02  -1.118598461151e+00   0.000000000000e+00   5.922874808311e-02  -3.090447485447e-01   0.000000000000e+00   5.922874808311e-02  -3.090447485447e-01 
  1.553944498301e-01   5.812944844365e-02  -3.444762527943e-01   5.160737633705e-01   8.255081623793e-02   1.599630117416e-01   5.392317175865e-01  -1.955388188362e-01  -3.265165388584e-01 
  8.277803659439e-01  -1.508305221796e-01  -1.000000014901e-01   8.302539587021e-01  -1.396358162165e-01  -6.343939900398e-02   1.003747463226e+00   1.014598063193e-03  -1.420674800873e+00 
  6.919468641281e-01  -1.666784100235e-02  -1.118598461151e+00   6.919468641281e-01  -1.666784100235e-02  -1.118598461151e+00   0.000000000000e+00   1.273341476917e-01  -5.992494225502e-01 
  0.000000000000e+00   1.273341476917e-01  -5.992494225502e-01   1.232614088804e-02   1.958164125681e-01  -4.933189749718e-01   1.217987760901e-01   1.496713608503e-01  -4.125077724457e-01 
  1.090245008469e+00  -3.739943504333e-01  -1.000000014901e-01   9.791553020477e-01  -1.493152678013e-01  -2.201610058546e-01   4.900625348091e-02  -4.771919548512e-02  -6.150289177895e-01 
  1.567953109741e+00   0.000000000000e+00  -2.274969100952e+00   1.559145689011e+00   1.578973978758e-02  -1.666284441948e+00   1.559145689011e+00   1.578973978758e-02  -1.666284441948e+00 
  0.000000000000e+00   2.328717410564e-01  -5.726342201233e-01   0.000000000000e+00   2.328717410564e-01  -5.726342201233e-01   2.688245102763e-02  -7.056072354317e-02  -7.645542621613e-01 
  8.841119706631e-02  -5.727990269661e-01  -6.215299963951e-01   1.359993100166e+00  -7.745542526245e-01  -5.265214443207e-01   1.282272577286e+00  -5.262320637703e-01  -3.795783221722e-01 
  0.000000000000e+00   8.099861443043e-02  -1.000000014901e-01   2.100693702698e+00   1.548530757427e-01  -2.279814243317e+00   2.074208974838e+00   8.466972410679e-02  -2.320087909698e+00 
  2.074208974838e+00   8.466972410679e-02  -2.320087909698e+00   0.000000000000e+00   2.251612991095e-01  -2.830758988857e-01   0.000000000000e+00   2.251612991095e-01  -2.830758988857e-01 
  3.419286757708e-02  -3.020995296538e-02  -2.836051583290e-01   1.890555769205e-01  -5.295495986938e-01  -5.636579394341e-01   8.288163542747e-01  -6.189553737640e-01  -5.656625628471e-01 
  3.350598216057e-01  -5.381396412849e-01  -5.414652824402e-01   7.761467993259e-02   4.451392218471e-02  -3.181192636490e+00   3.184642314911e+00   4.556893557310e-02  -3.294595241547e+00 
  3.183335065842e+00   4.556892812252e-02  -3.294595003128e+00   3.183335065842e+00   4.556892812252e-02  -3.294595003128e+00   0.000000000000e+00  -8.828534185886e-02  -2.996996343136e-01 
  0.000000000000e+00  -8.828534185886e-02  -2.996996343136e-01   9.666166454554e-02  -4.876516163349e-01  -4.283973872662e-01   3.124665319920e-01   1.079889535904e-01  -4.818771183491e-01 
  1.414650678635e-01   8.923310041428e-02  -3.867113888264e-01   2.468301057816e-01  -8.069510757923e-02  -3.733376264572e-01   1.115541309118e-01   3.614927455783e-02  -8.064002990723e-01 
  2.347151756287e+00   5.450807884336e-02  -1.000000014901e-01   2.372673273087e+00   6.447681784630e-02  -8.787319064140e-01   2.372673273087e+00   6.447681784630e-02  -8.787319064140e-01 
  0.000000000000e+00   6.828677654266e-02  -5.843493342400e-01   0.000000000000e+00   6.828677654266e-02  -5.843493342400e-01   7.409450411797e-02  -4.900483489037e-01  -4.867854416370e-01 
  2.006416916847e-01   3.291872739792e-01  -9.654987454414e-01   1.014253422618e-01   2.477688491344e-01  -3.193603754044e-01   3.813985735178e-02   1.744451820850e-01  -3.360260426998e-01 
  0.000000000000e+00  -3.621293976903e-02  -5.529525876045e-01   9.085834026337e-01   0.000000000000e+00  -8.875209093094e-02   1.036399006844e+00   9.471062570810e-03  -1.805247515440e-01 
  1.036399006844e+00   9.471062570810e-03  -1.805247515440e-01   0.000000000000e+00   8.812729269266e-02  -1.367964595556e-01   0.000000000000e+00   8.812729269266e-02  -1.367964595556e-01 
  1.022340878844e-01   1.120774894953e-01  -2.623818218708e-01   1.782950907946e-01   1.370164155960e-01  -9.362142682076e-01  -1.619383692741e-01   1.193587258458e-01  -7.877328991890e-01 
  2.084038555622e-01   1.086793169379e-01  -7.075171470642e-01   1.734162271023e-01   4.287509992719e-02  -7.060068249702e-01   1.326593160629e-01  -8.984617143869e-02  -9.147223830223e-02 
  3.263237774372e-01  -1.390953660011e-01  -9.355688095093e-01   3.263237774372e-01  -1.390953660011e-01  -9.355688095093e-01   0.000000000000e+00   0.000000000000e+00  -1.892322003841e-01 
  0.000000000000e+00   0.000000000000e+00  -1.892322003841e-01   5.667091533542e-02   0.000000000000e+00  -3.385482132435e-01   4.481171816587e-02   1.918253256008e-03  -7.633351683617e-01 
 -9.394142031670e-02   0.000000000000e+00  -5.745444893837e-01   1.292842626572e-01   0.000000000000e+00  -4.996651113033e-01   0.000000000000e+00   0.000000000000e+00  -1.000000014901e-01 
  0.000000000000e+00   0.000000000000e+00  -1.000000014901e-01   2.835728228092e-01  -4.020039341412e-04  -1.180061817169e+00   2.835728228092e-01  -4.020039341412e-04  -1.180061817169e+00 
  0.000000000000e+00   0.000000000000e+00  -1.892322003841e-01   0.000000000000e+00   0.000000000000e+00  -1.892322003841e-01   5.667091533542e-02   0.000000000000e+00  -3.385482132435e-01 
  4.481171816587e-02   1.918253256008e-03  -7.633351683617e-01  -9.394142031670e-02   0.000000000000e+00  -5.745444893837e-01   1.292842626572e-01   0.000000000000e+00  -4.996651113033e-01 
  0.000000000000e+00   0.000000000000e+00  -1.000000014901e-01   0.000000000000e+00   0.000000000000e+00  -1.000000014901e-01   2.835728228092e-01  -4.020039341412e-04  -1.180061817169e+00 
  2.835728228092e-01  -4.020039341412e-04  -1.180061817169e+00   0.000000000000e+00   5.205844715238e-02  -2.329852283001e-01   0.000000000000e+00   5.205844715238e-02  -2.329852283001e-01 
  5.208682268858e-03   2.106152325869e-01  -6.713250875473e-01  -2.357712015510e-03   2.234829813242e-01  -1.110700130463e+00   0.000000000000e+00   0.000000000000e+00  -6.154986023903e-01 
  8.226959109306e-01  -1.583885699511e-01  -9.759325981140e-01   8.378120064735e-01  -1.508305221796e-01  -9.683745503426e-01   0.000000000000e+00  -1.027407869697e-01  -1.580032587051e+00 
  7.138418555260e-01  -4.566961899400e-02  -1.548444032669e+00   7.138418555260e-01  -4.566961899400e-02  -1.548444032669e+00   0.000000000000e+00   5.205844715238e-02  -2.329852283001e-01 
  0.000000000000e+00   5.205844715238e-02  -2.329852283001e-01   5.208682268858e-03   2.106152325869e-01  -6.713250875473e-01  -2.357712015510e-03   2.234829813242e-01  -1.110700130463e+00 
  0.000000000000e+00   0.000000000000e+00  -6.154986023903e-01   8.226959109306e-01  -1.583885699511e-01  -9.759325981140e-01   8.378120064735e-01  -1.508305221796e-01  -9.683745503426e-01 
  0.000000000000e+00  -1.027407869697e-01  -1.580032587051e+00   7.138418555260e-01  -4.566961899400e-02  -1.548444032669e+00   7.138418555260e-01  -4.566961899400e-02  -1.548444032669e+00 
  0.000000000000e+00   1.428024768829e-01  -8.136687874794e-01   0.000000000000e+00   1.428024768829e-01  -8.136687874794e-01   1.171245006844e-03   2.725927531719e-01  -6.366630196571e-01 
  4.644289985299e-02   2.421801239252e-01  -5.994926095009e-01   9.831878542900e-01  -8.994793146849e-02  -2.526463568211e-01   5.270732939243e-02  -1.432724744081e-01  -1.012431681156e-01 
  0.000000000000e+00  -1.508305221796e-01  -1.084021687508e+00   2.290759325027e+00  -6.054405868053e-02  -2.274969100952e+00   2.319428205490e+00  -5.497783422470e-03  -2.346067190170e+00 
  2.319428205490e+00  -5.497783422470e-03  -2.346067190170e+00   0.000000000000e+00   7.513783872128e-02  -7.162741422653e-01   0.000000000000e+00   7.513783872128e-02  -7.162741422653e-01 
  4.872467368841e-02   2.288558054715e-03  -4.813599586487e-01   1.202814951539e-01  -6.163618564606e-01  -4.891984164715e-01   1.337618589401e+00  -7.906529903412e-01  -3.415536880493e-01 
  1.305189371109e+00  -1.638869643211e-01  -3.026934564114e-01   1.704296767712e-01   4.263564944267e-02  -1.000000014901e-01   3.183988809586e+00   0.000000000000e+00  -3.247895240784e+00 
  3.183988809586e+00   4.615739360452e-02  -3.227610588074e+00   3.183988809586e+00   4.615739360452e-02  -3.227610588074e+00   0.000000000000e+00   1.715668141842e-01  -3.948868811131e-01 
  0.000000000000e+00   1.715668141842e-01  -3.948868811131e-01   1.469704955816e-01   5.487068369985e-02   1.224019080400e-01   2.735520899296e-01  -3.979759812355e-01  -7.298864722252e-01 
  1.321132779121e+00  -8.134145140648e-01  -4.369268119335e-01   7.213130593300e-01  -6.780680418015e-01  -4.863373339176e-01  -1.144090760499e-02   4.983526840806e-02  -3.243074417114e+00 
  3.184234142303e+00   5.516168847680e-02  -3.295902490616e+00   3.183741807938e+00   5.036530643702e-02  -3.295310020447e+00   3.183741807938e+00   5.036530643702e-02  -3.295310020447e+00 
  0.000000000000e+00   8.507906645536e-02  -2.636310160160e-01   0.000000000000e+00   8.507906645536e-02  -2.636310160160e-01   6.138847395778e-02  -5.780246481299e-02   3.877301216125e-01 
  1.611553579569e-01  -1.177613735199e-01  -5.253220200539e-01   3.411434590816e-02  -2.194213271141e-01  -5.508595705032e-01   0.000000000000e+00   5.048114061356e-01  -5.508595705032e-01 
  0.000000000000e+00   2.758088149130e-02  -1.498614788055e+00   1.948767423630e+00   5.516168847680e-02  -1.000000014901e-01   2.523736953735e+00   5.724713951349e-02  -1.391807079315e+00 