# vtk DataFile Version 2.0
Written using VisIt writer
ASCII
DATASET RECTILINEAR_GRID
DIMENSIONS 10 10 10
X_COORDINATES 10 float
  0.000000000000e+00   5.000000000000e-01   1.000000000000e+00   1.500000000000e+00   2.000000000000e+00   2.500000000000e+00   3.000000000000e+00   3.500000000000e+00   4.000000000000e+00 
  4.500000000000e+00 
Y_COORDINATES 10 float
  0.000000000000e+00   5.000000000000e-01   1.000000000000e+00   1.500000000000e+00   2.000000000000e+00   2.500000000000e+00   3.000000000000e+00   3.500000000000e+00   4.000000000000e+00 
  4.500000000000e+00 
Z_COORDINATES 10 float
  0.000000000000e+00   5.000000000000e-01   1.000000000000e+00   1.500000000000e+00   2.000000000000e+00   2.500000000000e+00   3.000000000000e+00   3.500000000000e+00   4.000000000000e+00 
  4.500000000000e+00 
CELL_DATA 729
POINT_DATA 1000
VECTORS velocity float
  0.000000000000e+00  -1.275750398636e-01  -2.991567254066e-01   1.750000000000e+00   0.000000000000e+00   1.750000000000e+00   1.195810980991e-26   9.657195806503e-01   2.535873889923e+00 
  6.338701397181e-02  -1.212961599231e-01  -2.779658138752e-01  -5.396352635578e-12   1.750061511993e+00   0.000000000000e+00   1.750000000000e+00   0.000000000000e+00   1.750000000000e+00 
 -6.994085758924e-02  -1.228854730725e-01  -3.028083145618e-01  -1.504788994789e+00  -1.820767967103e-37  -1.604723334312e+00  -2.505737949014e+28   1.750046849251e+00   0.000000000000e+00 
 -5.462433397770e-02  -1.492042988539e-01  -3.231670856476e-01   0.000000000000e+00  -1.275750398636e-01  -2.991567254066e-01  -1.503288388252e+00   7.502932846546e-02  -1.706251263618e+00 
 -9.596864692867e-03  -1.450314968824e-01  -3.023130297661e-01   6.338701397181e-02  -1.212961599231e-01  -2.779658138752e-01   1.195810980991e-26   9.657195806503e-01   2.535873889923e+00 
  5.368349142373e-03  -9.777498245239e-02  -2.781110703945e-01  -6.994085758924e-02  -1.228854730725e-01  -3.028083145618e-01   1.750000000000e+00   0.000000000000e+00   1.750000000000e+00 
 -5.462433397770e-02  -1.492042988539e-01  -3.231670856476e-01  -5.462433397770e-02  -1.492042988539e-01  -3.231670856476e-01   0.000000000000e+00   7.959862053394e-02  -2.782804369926e-01 
  0.000000000000e+00   7.959862053394e-02  -2.782804369926e-01  -5.922311171889e-02   4.614824429154e-02  -2.972959280014e-01  -4.475257825106e-03  -2.390126325190e-02  -2.946757376194e-01 
 -2.062565647066e-02  -4.334044829011e-02  -3.032859265804e-01   6.100144609809e-02   5.399126559496e-03  -2.769778370857e-01  -2.200278267264e-02   4.570464044809e-02  -2.836333215237e-01 
  2.057141624391e-02   8.945660293102e-02  -2.847861945629e-01  -4.244965687394e-02   1.006584465504e-01  -3.011378645897e-01  -4.244965687394e-02   1.006584465504e-01  -3.011378645897e-01 
  0.000000000000e+00   1.075382228009e-03  -2.723252475262e-01   0.000000000000e+00   1.075382228009e-03  -2.723252475262e-01  -2.866767160594e-02   2.656640857458e-02  -2.786024510860e-01 
  2.936806902289e-02   5.734343826771e-02  -2.798607349396e-01  -3.301150351763e-02   3.999400883913e-02  -2.946698665619e-01  -2.390250749886e-02  -4.942215606570e-02  -2.927956581116e-01 
 -7.107560336590e-02  -9.302154928446e-02  -3.192103505135e-01   7.409553974867e-02  -2.133251726627e-02  -2.851517796516e-01  -3.235787153244e-02  -1.141881849617e-02  -2.916475832462e-01 
 -3.235787153244e-02  -1.141881849617e-02  -2.916475832462e-01   0.000000000000e+00  -4.891870543361e-02  -2.863137423992e-01   0.000000000000e+00  -4.891870543361e-02  -2.863137423992e-01 
 -8.262821286917e-02  -1.005524992943e-01  -3.183306455612e-01   9.065133333206e-02  -2.410080097616e-02  -2.796311378479e-01  -5.048829596490e-03   2.911760006100e-03  -2.820338308811e-01 
  2.758101560175e-02   4.841712117195e-02  -2.792962789536e-01  -4.147973284125e-02   6.650889664888e-02  -2.982301414013e-01  -3.648458421230e-02  -5.089463293552e-02  -3.006975948811e-01 
 -9.148483723402e-02  -1.052163913846e-01  -3.249017596245e-01  -9.148483723402e-02  -1.052163913846e-01  -3.249017596245e-01   0.000000000000e+00   5.225908756256e-02  -2.727093994617e-01 
  0.000000000000e+00   5.225908756256e-02  -2.727093994617e-01  -4.575197771192e-02   7.688952982426e-02  -2.919312715530e-01  -3.224712237716e-02  -5.242499709129e-02  -2.957351505756e-01 
 -5.572657659650e-02  -9.342446178198e-02  -3.160450756550e-01   8.088165521622e-02  -2.530683204532e-02  -2.800162136555e-01  -1.340722432360e-03   1.417452190071e-02  -2.835130393505e-01 
  2.008797228336e-02   6.141344457865e-02  -2.830184102058e-01  -4.373921081424e-02   9.774782508612e-02  -2.996736764908e-01  -4.373921081424e-02   9.774782508612e-02  -2.996736764908e-01 
  0.000000000000e+00  -2.406713925302e-02  -2.708144485950e-01   0.000000000000e+00  -2.406713925302e-02  -2.708144485950e-01  -1.464286912233e-02   1.021389104426e-02  -2.761248648167e-01 
  2.679371833801e-02   5.968030169606e-02  -2.787056863308e-01  -4.238571971655e-02   6.349267065525e-02  -2.967780828476e-01  -3.383592143655e-02  -5.722785741091e-02  -3.000383377075e-01 
 -3.860016912222e-02  -8.528515696526e-02  -3.136630058289e-01   5.706436187029e-02  -3.396983072162e-02  -2.843544185162e-01  -3.898832947016e-02  -2.496603503823e-02  -2.903197705746e-01 
 -3.898832947016e-02  -2.496603503823e-02  -2.903197705746e-01   0.000000000000e+00  -8.545298129320e-02  -2.969322204590e-01   0.000000000000e+00  -8.545298129320e-02  -2.969322204590e-01 
 -4.876595363021e-02  -1.063284501433e-01  -3.154500722885e-01   9.340716898441e-02  -3.865915350616e-03  -2.793902158737e-01  -2.880120184273e-03   3.399654105306e-02  -2.818646132946e-01 
  3.243933990598e-02   6.721585243940e-02  -2.798620164394e-01  -4.472871124744e-02   4.683311283588e-02  -2.979932129383e-01  -5.612124875188e-02  -8.021818101406e-02  -3.061060309410e-01 
 -9.519295394421e-02  -1.465482562780e-01  -3.357737660408e-01  -9.519295394421e-02  -1.465482562780e-01  -3.357737660408e-01   0.000000000000e+00   0.000000000000e+00  -2.804339826107e-01 
  0.000000000000e+00   0.000000000000e+00  -2.804339826107e-01  -6.468530744314e-02   0.000000000000e+00  -2.992332279682e-01  -1.711497455835e-02   0.000000000000e+00  -2.900415956974e-01 
 -4.828336462379e-02   0.000000000000e+00  -3.066577613354e-01   1.345492899418e-01   0.000000000000e+00  -2.755901217461e-01   1.168752647936e-02   0.000000000000e+00  -2.858506739140e-01 
 -1.611521001905e-03   0.000000000000e+00  -2.854256927967e-01  -9.464508853853e-03   0.000000000000e+00  -2.950675487518e-01  -9.464508853853e-03   0.000000000000e+00  -2.950675487518e-01 
  0.000000000000e+00   0.000000000000e+00  -2.804339826107e-01   0.000000000000e+00   0.000000000000e+00  -2.804339826107e-01  -6.468530744314e-02   0.000000000000e+00  -2.992332279682e-01 
 -1.711497455835e-02   0.000000000000e+00  -2.900415956974e-01  -4.828336462379e-02   0.000000000000e+00  -3.066577613354e-01   1.345492899418e-01   0.000000000000e+00  -2.755901217461e-01 
  1.168752647936e-02   0.000000000000e+00  -2.858506739140e-01  -1.611521001905e-03   0.000000000000e+00  -2.854256927967e-01  -9.464508853853e-03   0.000000000000e+00  -2.950675487518e-01 
 -9.464508853853e-03   0.000000000000e+00  -2.950675487518e-01   0.000000000000e+00  -1.275750398636e-01  -2.991567254066e-01   0.000000000000e+00  -1.275750398636e-01  -2.991567254066e-01 
 -9.596864692867e-03  -1.450314968824e-01  -3.023130297661e-01   6.338701397181e-02  -1.212961599231e-01  -2.779658138752e-01   7.306359708309e-03  -1.168825477362e-01  -2.770925164223e-01 
  5.368349142373e-03  -9.777498245239e-02  -2.781110703945e-01  -6.994085758924e-02  -1.228854730725e-01  -3.028083145618e-01  -1.926655136049e-02  -1.275785565376e-01  -3.068828284740e-01 
 -5.462433397770e-02  -1.492042988539e-01  -3.231670856476e-01  -5.462433397770e-02  -1.492042988539e-01  -3.231670856476e-01   0.000000000000e+00  -1.275750398636e-01  -2.991567254066e-01 
  0.000000000000e+00  -1.275750398636e-01  -2.991567254066e-01  -9.596864692867e-03  -1.450314968824e-01  -3.023130297661e-01   6.338701397181e-02  -1.212961599231e-01  -2.779658138752e-01 
  7.306359708309e-03  -1.168825477362e-01  -2.770925164223e-01   5.368349142373e-03  -9.777498245239e-02  -2.781110703945e-01  -6.994085758924e-02  -1.228854730725e-01  -3.028083145618e-01 
 -1.926655136049e-02  -1.275785565376e-01  -3.068828284740e-01  -5.462433397770e-02  -1.492042988539e-01  -3.231670856476e-01  -5.462433397770e-02  -1.492042988539e-01  -3.231670856476e-01 
  0.000000000000e+00   7.959862053394e-02  -2.782804369926e-01   0.000000000000e+00   7.959862053394e-02  -2.782804369926e-01  -5.922311171889e-02   4.614824429154e-02  -2.972959280014e-01 
 -4.475257825106e-03  -2.390126325190e-02  -2.946757376194e-01  -2.062565647066e-02  -4.334044829011e-02  -3.032859265804e-01   6.100144609809e-02   5.399126559496e-03  -2.769778370857e-01 
 -2.200278267264e-02   4.570464044809e-02  -2.836333215237e-01   2.057141624391e-02   8.945660293102e-02  -2.847861945629e-01  -4.244965687394e-02   1.006584465504e-01  -3.011378645897e-01 
 -4.244965687394e-02   1.006584465504e-01  -3.011378645897e-01   0.000000000000e+00   1.075382228009e-03  -2.723252475262e-01   0.000000000000e+00   1.075382228009e-03  -2.723252475262e-01 
 -2.866767160594e-02   2.656640857458e-02  -2.786024510860e-01   2.936806902289e-02   5.734343826771e-02  -2.798607349396e-01  -3.301150351763e-02   3.999400883913e-02  -2.946698665619e-01 
 -2.390250749886e-02  -4.942215606570e-02  -2.927956581116e-01  -7.107560336590e-02  -9.302154928446e-02  -3.192103505135e-01   7.409553974867e-02  -2.133251726627e-02  -2.851517796516e-01 
 -3.235787153244e-02  -1.141881849617e-02  -2.916475832462e-01  -3.235787153244e-02  -1.141881849617e-02  -2.916475832462e-01   0.000000000000e+00  -4.891870543361e-02  -2.863137423992e-01 
  0.000000000000e+00  -4.891870543361e-02  -2.863137423992e-01  -8.262821286917e-02  -1.005524992943e-01  -3.183306455612e-01   9.065133333206e-02  -2.410080097616e-02  -2.796311378479e-01 
 -5.048829596490e-03   2.911760006100e-03  -2.820338308811e-01   2.758101560175e-02   4.841712117195e-02  -2.792962789536e-01  -4.147973284125e-02   6.650889664888e-02  -2.982301414013e-01 
 -3.648458421230e-02  -5.089463293552e-02  -3.006975948811e-01  -9.148483723402e-02  -1.052163913846e-01  -3.249017596245e-01  -9.148483723402e-02  -1.052163913846e-01  -3.249017596245e-01 
  0.000000000000e+00   5.225908756256e-02  -2.727093994617e-01   0.000000000000e+00   5.225908756256e-02  -2.727093994617e-01  -4.575197771192e-02   7.688952982426e-02  -2.919312715530e-01 
 -3.224712237716e-02  -5.242499709129e-02  -2.957351505756e-01  -5.572657659650e-02  -9.342446178198e-02  -3.160450756550e-01   8.088165521622e-02  -2.530683204532e-02  -2.800162136555e-01 
 -1.340722432360e-03   1.417452190071e-02  -2.835130393505e-01   2.008797228336e-02   6.141344457865e-02  -2.830184102058e-01  -4.373921081424e-02   9.774782508612e-02  -2.996736764908e-01 
 -4.373921081424e-02   9.774782508612e-02  -2.996736764908e-01   0.000000000000e+00  -2.406713925302e-02  -2.708144485950e-01   0.000000000000e+00  -2.406713925302e-02  -2.708144485950e-01 
 -1.464286912233e-02   1.021389104426e-02  -2.761248648167e-01   2.679371833801e-02   5.968030169606e-02  -2.787056863308e-01  -4.238571971655e-02   6.349267065525e-02  -2.967780828476e-01 
 -3.383592143655e-02  -5.722785741091e-02  -3.000383377075e-01  -3.860016912222e-02  -8.528515696526e-02  -3.136630058289e-01   5.706436187029e-02  -3.396983072162e-02  -2.843544185162e-01 
 -3.898832947016e-02  -2.496603503823e-02  -2.903197705746e-01  -3.898832947016e-02  -2.496603503823e-02  -2.903197705746e-01   0.000000000000e+00  -8.545298129320e-02  -2.969322204590e-01 
  0.000000000000e+00  -8.545298129320e-02  -2.969322204590e-01  -4.876595363021e-02  -1.063284501433e-01  -3.154500722885e-01   9.340716898441e-02  -3.865915350616e-03  -2.793902158737e-01 
 -2.880120184273e-03   3.399654105306e-02  -2.818646132946e-01   3.243933990598e-02   6.721585243940e-02  -2.798620164394e-01  -4.472871124744e-02   4.683311283588e-02  -2.979932129383e-01 
 -5.612124875188e-02  -8.021818101406e-02  -3.061060309410e-01  -9.519295394421e-02  -1.465482562780e-01  -3.357737660408e-01  -9.519295394421e-02  -1.465482562780e-01  -3.357737660408e-01 
  0.000000000000e+00   0.000000000000e+00  -2.804339826107e-01   0.000000000000e+00   0.000000000000e+00  -2.804339826107e-01  -6.468530744314e-02   0.000000000000e+00  -2.992332279682e-01 
 -1.711497455835e-02   0.000000000000e+00  -2.900415956974e-01  -4.828336462379e-02   0.000000000000e+00  -3.066577613354e-01   1.345492899418e-01   0.000000000000e+00  -2.755901217461e-01 
  1.168752647936e-02   0.000000000000e+00  -2.858506739140e-01  -1.611521001905e-03   0.000000000000e+00  -2.854256927967e-01  -9.464508853853e-03   0.000000000000e+00  -2.950675487518e-01 
 -9.464508853853e-03   0.000000000000e+00  -2.950675487518e-01   0.000000000000e+00   0.000000000000e+00  -2.804339826107e-01   0.000000000000e+00   0.000000000000e+00  -2.804339826107e-01 
 -6.468530744314e-02   0.000000000000e+00  -2.992332279682e-01  -1.711497455835e-02   0.000000000000e+00  -2.900415956974e-01  -4.828336462379e-02   0.000000000000e+00  -3.066577613354e-01 
  1.345492899418e-01   0.000000000000e+00  -2.755901217461e-01   1.168752647936e-02   0.000000000000e+00  -2.858506739140e-01  -1.611521001905e-03   0.000000000000e+00  -2.854256927967e-01 
 -9.464508853853e-03   0.000000000000e+00  -2.950675487518e-01  -9.464508853853e-03   0.000000000000e+00  -2.950675487518e-01   0.000000000000e+00  -1.246922984719e-01  -2.031111568213e-01 
  0.000000000000e+00  -1.246922984719e-01  -2.031111568213e-01   1.417182065779e-04  -1.258369535208e-01  -1.897631734610e-01   9.181959554553e-03  -1.194734126329e-01  -2.605193555355e-01 
  3.165022237226e-03  -1.183394640684e-01  -2.714607417583e-01  -3.363261464983e-03  -1.190382763743e-01  -2.914645969868e-01  -1.517654675990e-02  -1.262501925230e-01  -2.371862381697e-01 
 -1.055836398154e-02  -1.296986788511e-01  -2.168668061495e-01  -1.160194259137e-02  -1.353496164083e-01  -1.753541827202e-01  -1.160194259137e-02  -1.353496164083e-01  -1.753541827202e-01 
  0.000000000000e+00  -1.246922984719e-01  -2.031111568213e-01   0.000000000000e+00  -1.246922984719e-01  -2.031111568213e-01   1.417182065779e-04  -1.258369535208e-01  -1.897631734610e-01 
  9.181959554553e-03  -1.194734126329e-01  -2.605193555355e-01   3.165022237226e-03  -1.183394640684e-01  -2.714607417583e-01  -3.363261464983e-03  -1.190382763743e-01  -2.914645969868e-01 
 -1.517654675990e-02  -1.262501925230e-01  -2.371862381697e-01  -1.055836398154e-02  -1.296986788511e-01  -2.168668061495e-01  -1.160194259137e-02  -1.353496164083e-01  -1.753541827202e-01 
 -1.160194259137e-02  -1.353496164083e-01  -1.753541827202e-01   0.000000000000e+00   2.850828692317e-02  -2.771047651768e-01   0.000000000000e+00   2.850828692317e-02  -2.771047651768e-01 
 -7.341678719968e-03   1.927795261145e-02  -2.281691879034e-01   2.155823167413e-03   2.206145413220e-02  -2.237834483385e-01  -1.600542454980e-03   1.870689913630e-02  -1.906538605690e-01 
  7.577831856906e-04   2.437185309827e-02  -2.649085819721e-01  -7.094786036760e-03   2.392008155584e-02  -2.557088434696e-01  -4.755915142596e-03   2.981733530760e-02  -2.855571508408e-01 
 -8.000445552170e-03   3.281024843454e-02  -2.673686444759e-01  -8.000445552170e-03   3.281024843454e-02  -2.673686444759e-01   0.000000000000e+00   1.634003594518e-03  -2.687970399857e-01 
  0.000000000000e+00   1.634003594518e-03  -2.687970399857e-01  -7.091783452779e-03   5.712055717595e-04  -2.425768077374e-01  -5.183776374906e-04  -1.796951517463e-03  -2.871643900871e-01 
 -3.895609406754e-03  -3.977986518294e-03  -2.713169157505e-01  -2.537944354117e-03  -7.990629412234e-03  -2.534472644329e-01  -1.029145251960e-02  -1.128259021789e-02  -1.663570553064e-01 
 -8.891306351870e-04  -4.036678466946e-03  -2.487708777189e-01  -5.110774654895e-03  -8.664043853059e-04  -2.461693435907e-01  -5.110774654895e-03  -8.664043853059e-04  -2.461693435907e-01 
  0.000000000000e+00  -5.247517954558e-03  -2.341888993979e-01   0.000000000000e+00  -5.247517954558e-03  -2.341888993979e-01  -1.098267640918e-02  -9.250886738300e-03  -1.507693678141e-01 
  3.365397918969e-03  -2.498080721125e-03  -2.491217255592e-01   3.923756303266e-04   1.478507765569e-03  -2.544909715652e-01  -1.183929736726e-03   1.871499349363e-03  -2.888949811459e-01 
 -8.168609812856e-03   2.918151440099e-03  -2.692637443542e-01  -5.368737503886e-03  -2.599191153422e-03  -2.379222065210e-01  -1.183376181871e-02  -9.216124191880e-03  -1.551146954298e-01 
 -1.183376181871e-02  -9.216124191880e-03  -1.551146954298e-01   0.000000000000e+00   3.557678777725e-03  -2.857443094254e-01   0.000000000000e+00   3.557678777725e-03  -2.857443094254e-01 
 -1.010571606457e-02   2.641296247020e-03  -2.590862810612e-01  -1.837663585320e-03  -3.714779857546e-03  -2.378880381584e-01  -6.139118690044e-03  -9.489841759205e-03  -1.613468229771e-01 
  3.440363332629e-03  -2.171356463805e-03  -2.458162307739e-01  -1.450404291973e-03   4.115410614759e-03  -2.582500874996e-01  -3.581563476473e-03   4.216849338263e-03  -2.890773713589e-01 
 -8.926656097174e-03   5.577067378908e-03  -2.682498693466e-01  -8.926656097174e-03   5.577067378908e-03  -2.682498693466e-01   0.000000000000e+00  -2.573159988970e-03  -2.551752328873e-01 
  0.000000000000e+00  -2.573159988970e-03  -2.551752328873e-01  -5.069946870208e-03   2.280209911987e-03  -2.423197925091e-01  -8.097904501483e-04   1.702175242826e-03  -2.880841195583e-01 
 -5.349865183234e-03   2.147513208911e-03  -2.662452757359e-01  -8.987357141450e-04  -3.150988370180e-03  -2.278233170509e-01  -6.294844672084e-03  -7.572562433779e-03  -1.721975803375e-01 
 -1.532105263323e-03  -2.928259782493e-03  -2.429597824812e-01  -6.635820958763e-03   4.292204685044e-04  -2.305121719837e-01  -6.635820958763e-03   4.292204685044e-04  -2.305121719837e-01 
  0.000000000000e+00  -1.226179115474e-02  -1.990028470755e-01   0.000000000000e+00  -1.226179115474e-02  -1.990028470755e-01  -6.349836476147e-03  -1.232782937586e-02  -1.423453688622e-01 
  6.211254745722e-03  -2.855728846043e-03  -2.503328919411e-01   2.833620877936e-03   4.052608273923e-03  -2.579763829708e-01   2.709483262151e-03   5.167718045413e-03  -2.943428158760e-01 
 -6.608308292925e-03   4.015780519694e-03  -2.740249633789e-01  -8.893615566194e-03  -4.065203480422e-03  -2.224895954132e-01  -1.351579744369e-02  -1.114958338439e-02  -1.384538859129e-01 
 -1.351579744369e-02  -1.114958338439e-02  -1.384538859129e-01   0.000000000000e+00   0.000000000000e+00  -2.810871303082e-01   0.000000000000e+00   0.000000000000e+00  -2.810871303082e-01 
 -9.829517453909e-03   0.000000000000e+00  -2.313424348831e-01   2.621956169605e-03   0.000000000000e+00  -2.214981913567e-01   5.162421148270e-04   0.000000000000e+00  -1.354857087135e-01 
  1.090116892010e-02   0.000000000000e+00  -2.710556089878e-01   2.588134258986e-03   0.000000000000e+00  -3.197958171368e-01  -6.854324135929e-03   0.000000000000e+00  -3.199702799320e-01 
 -9.402383118868e-03   0.000000000000e+00  -3.181311786175e-01  -9.402383118868e-03   0.000000000000e+00  -3.181311786175e-01   0.000000000000e+00   0.000000000000e+00  -2.810871303082e-01 
  0.000000000000e+00   0.000000000000e+00  -2.810871303082e-01  -9.829517453909e-03   0.000000000000e+00  -2.313424348831e-01   2.621956169605e-03   0.000000000000e+00  -2.214981913567e-01 
  5.162421148270e-04   0.000000000000e+00  -1.354857087135e-01   1.090116892010e-02   0.000000000000e+00  -2.710556089878e-01   2.588134258986e-03   0.000000000000e+00  -3.197958171368e-01 
 -6.854324135929e-03   0.000000000000e+00  -3.199702799320e-01  -9.402383118868e-03   0.000000000000e+00  -3.181311786175e-01  -9.402383118868e-03   0.000000000000e+00  -3.181311786175e-01 
  0.000000000000e+00  -1.111126989126e-01  -2.440927773714e-01   0.000000000000e+00  -1.111126989126e-01  -2.440927773714e-01  -5.272762500681e-04  -1.120902150869e-01  -2.519218623638e-01 
  3.982441499829e-03  -1.092866957188e-01  -2.631032168865e-01   1.426888629794e-03  -1.083552092314e-01  -2.654075920582e-01  -1.423578592949e-03  -1.082313284278e-01  -2.644132971764e-01 
 -7.651817984879e-03  -1.122105494142e-01  -2.590916156769e-01  -6.216071080416e-03  -1.152261197567e-01  -2.549395263195e-01  -5.833487026393e-03  -1.185757815838e-01  -2.503314614296e-01 
 -5.833487026393e-03  -1.185757815838e-01  -2.503314614296e-01   0.000000000000e+00  -1.111126989126e-01  -2.440927773714e-01   0.000000000000e+00  -1.111126989126e-01  -2.440927773714e-01 
 -5.272762500681e-04  -1.120902150869e-01  -2.519218623638e-01   3.982441499829e-03  -1.092866957188e-01  -2.631032168865e-01   1.426888629794e-03  -1.083552092314e-01  -2.654075920582e-01 
 -1.423578592949e-03  -1.082313284278e-01  -2.644132971764e-01  -7.651817984879e-03  -1.122105494142e-01  -2.590916156769e-01  -6.216071080416e-03  -1.152261197567e-01  -2.549395263195e-01 
 -5.833487026393e-03  -1.185757815838e-01  -2.503314614296e-01  -5.833487026393e-03  -1.185757815838e-01  -2.503314614296e-01   0.000000000000e+00   2.043917216361e-02  -2.488985210657e-01 
  0.000000000000e+00   2.043917216361e-02  -2.488985210657e-01  -3.677301108837e-03   1.545470859855e-02  -2.534853518009e-01   3.699917870108e-04   2.227311953902e-02  -2.617601454258e-01 
 -1.102266018279e-03   2.126503735781e-02  -2.628288865089e-01   3.860658762278e-05   2.454428933561e-02  -2.638826370239e-01  -4.700527060777e-03   1.741022057831e-02  -2.618243992329e-01 
 -2.126227132976e-03   2.073347754776e-02  -2.591668367386e-01  -3.534045768902e-03   2.296311594546e-02  -2.554730176926e-01  -3.534045768902e-03   2.296311594546e-02  -2.554730176926e-01 
  0.000000000000e+00  -1.279589137994e-03  -2.521806657314e-01   0.000000000000e+00  -1.279589137994e-03  -2.521806657314e-01  -3.805705113336e-03  -1.672489685006e-03  -2.570534646511e-01 
  5.536000244319e-04  -1.387569005601e-03  -2.620697915554e-01  -1.677377033047e-03  -1.833025482483e-03  -2.602736353874e-01  -2.601209795102e-03  -4.683581646532e-03  -2.613968849182e-01 
 -5.757277831435e-03  -5.924543831497e-03  -2.594600021839e-01  -8.879991946742e-04  -3.982855472714e-03  -2.602940797806e-01  -2.945209387690e-03  -3.317988710478e-03  -2.580802440643e-01 
 -2.945209387690e-03  -3.317988710478e-03  -2.580802440643e-01   0.000000000000e+00  -1.462110551074e-03  -2.497217059135e-01   0.000000000000e+00  -1.462110551074e-03  -2.497217059135e-01 
 -5.374944768846e-03  -3.073246683925e-03  -2.541069388390e-01   1.265936996788e-03  -1.940897898749e-03  -2.630638778210e-01  -4.629317263607e-04  -6.975962314755e-04  -2.631683051586e-01 
  7.602879486512e-05   1.893624197692e-03  -2.623782753944e-01  -3.637267509475e-03   3.930566366762e-03  -2.582553923130e-01  -4.057978279889e-03   6.622408400290e-04  -2.582629621029e-01 
 -6.145696155727e-03  -2.615004545078e-03  -2.547129988670e-01  -6.145696155727e-03  -2.615004545078e-03  -2.547129988670e-01   0.000000000000e+00   2.441799268126e-03  -2.517113387585e-01 
  0.000000000000e+00   2.441799268126e-03  -2.517113387585e-01  -4.396823700517e-03   3.240893827751e-03  -2.534514963627e-01  -2.052974188700e-03  -4.036694299430e-04  -2.606172561646e-01 
 -3.601585980505e-03  -3.523035906255e-03  -2.601959109306e-01   1.241055317223e-03  -1.931530190632e-03  -2.629126310349e-01  -1.109669916332e-03   5.011277389713e-04  -2.623290419579e-01 
 -1.162532134913e-03   3.177168313414e-03  -2.601127624512e-01  -3.710299497470e-03   5.397175904363e-03  -2.556919753551e-01  -3.710299497470e-03   5.397175904363e-03  -2.556919753551e-01 
  0.000000000000e+00  -3.170428797603e-03  -2.523413002491e-01   0.000000000000e+00  -3.170428797603e-03  -2.523413002491e-01  -2.773788291961e-03  -1.441225525923e-03  -2.575209736824e-01 
  1.026105601341e-03   1.555831520818e-03  -2.618737220764e-01  -1.642893417738e-03   3.461279673502e-03  -2.586019337177e-01  -1.507191220298e-03   4.537374188658e-04  -2.605085968971e-01 
 -3.705433569849e-03  -2.165704267099e-03  -2.601688802242e-01  -1.154205063358e-03  -1.701290137134e-03  -2.604570984840e-01  -3.554707625881e-03  -1.361122238450e-03  -2.579750120640e-01 
 -3.554707625881e-03  -1.361122238450e-03  -2.579750120640e-01   0.000000000000e+00  -4.985684528947e-03  -2.464848607779e-01   0.000000000000e+00  -4.985684528947e-03  -2.464848607779e-01 
 -3.662190400064e-03  -5.636619869620e-03  -2.522206306458e-01   3.053313121200e-03  -2.965175081044e-03  -2.619042992592e-01   1.627706689760e-03   7.375654968200e-05  -2.629335224628e-01 
  3.237647935748e-03   4.105424974114e-03  -2.628324329853e-01  -1.887633930892e-03   5.501728504896e-03  -2.594112753868e-01  -5.319039802998e-03   1.173390541226e-03  -2.578450441360e-01 
 -6.368308328092e-03  -1.879204879515e-03  -2.526645660400e-01  -6.368308328092e-03  -1.879204879515e-03  -2.526645660400e-01   0.000000000000e+00   0.000000000000e+00  -2.461215853691e-01 
  0.000000000000e+00   0.000000000000e+00  -2.461215853691e-01  -5.188391543925e-03   0.000000000000e+00  -2.494998127222e-01  -1.165126916021e-03   0.000000000000e+00  -2.598369419575e-01 
 -6.653894088231e-04   0.000000000000e+00  -2.631210386753e-01   8.598199114203e-03   0.000000000000e+00  -2.659566700459e-01   3.596930531785e-03   0.000000000000e+00  -2.637110352516e-01 
 -2.813522936776e-03   0.000000000000e+00  -2.607709467411e-01  -3.240845864639e-03   0.000000000000e+00  -2.546009719372e-01  -3.240845864639e-03   0.000000000000e+00  -2.546009719372e-01 
  0.000000000000e+00   0.000000000000e+00  -2.461215853691e-01   0.000000000000e+00   0.000000000000e+00  -2.461215853691e-01  -5.188391543925e-03   0.000000000000e+00  -2.494998127222e-01 
 -1.165126916021e-03   0.000000000000e+00  -2.598369419575e-01  -6.653894088231e-04   0.000000000000e+00  -2.631210386753e-01   8.598199114203e-03   0.000000000000e+00  -2.659566700459e-01 
  3.596930531785e-03   0.000000000000e+00  -2.637110352516e-01  -2.813522936776e-03   0.000000000000e+00  -2.607709467411e-01  -3.240845864639e-03   0.000000000000e+00  -2.546009719372e-01 
 -3.240845864639e-03   0.000000000000e+00  -2.546009719372e-01   0.000000000000e+00  -9.222216904163e-02  -2.430155426264e-01   0.000000000000e+00  -9.222216904163e-02  -2.430155426264e-01 
 -4.689910929301e-05  -9.238781780005e-02  -2.489351183176e-01   8.791835862212e-04  -9.171212464571e-02  -2.584267556667e-01   1.001974669634e-04  -9.149120748043e-02  -2.599474191666e-01 
 -1.499348552898e-03  -9.199412167072e-02  -2.606214582920e-01  -3.400506684557e-03  -9.370288252831e-02  -2.570008635521e-01  -3.152042627335e-03  -9.532877057791e-02  -2.537937462330e-01 
 -2.364651998505e-03  -9.666625410318e-02  -2.504652738571e-01  -2.364651998505e-03  -9.666625410318e-02  -2.504652738571e-01   0.000000000000e+00  -9.222216904163e-02  -2.430155426264e-01 
  0.000000000000e+00  -9.222216904163e-02  -2.430155426264e-01  -4.689910929301e-05  -9.238781780005e-02  -2.489351183176e-01   8.791835862212e-04  -9.171212464571e-02  -2.584267556667e-01 
  1.001974669634e-04  -9.149120748043e-02  -2.599474191666e-01  -1.499348552898e-03  -9.199412167072e-02  -2.606214582920e-01  -3.400506684557e-03  -9.370288252831e-02  -2.570008635521e-01 
 -3.152042627335e-03  -9.532877057791e-02  -2.537937462330e-01  -2.364651998505e-03  -9.666625410318e-02  -2.504652738571e-01  -2.364651998505e-03  -9.666625410318e-02  -2.504652738571e-01 
  0.000000000000e+00   1.343817077577e-02  -2.476568222046e-01   0.000000000000e+00   1.343817077577e-02  -2.476568222046e-01  -9.874320821837e-04   1.049336045980e-02  -2.516642510891e-01 
  1.523792889202e-04   1.774520613253e-02  -2.582115530968e-01  -4.581276734825e-04   1.971179805696e-02  -2.577918469906e-01  -1.289183273911e-03   1.853007450700e-02  -2.594067156315e-01 
 -2.705594059080e-03   1.278076227754e-02  -2.576342523098e-01  -2.071809954941e-03   1.384552195668e-02  -2.574228942394e-01  -1.697277300991e-03   1.450142543763e-02  -2.558872997761e-01 
 -1.697277300991e-03   1.450142543763e-02  -2.558872997761e-01   0.000000000000e+00  -1.383311930113e-03  -2.476225793362e-01   0.000000000000e+00  -1.383311930113e-03  -2.476225793362e-01 
 -1.248226966709e-03  -1.731443568133e-03  -2.517170011997e-01  -7.141579408199e-04  -2.564681228250e-03  -2.593535780907e-01  -1.014432869852e-03  -3.093949751928e-03  -2.590911984444e-01 
 -1.360004069284e-03  -3.193034324795e-03  -2.581359148026e-01  -2.141673583537e-03  -2.637180732563e-03  -2.548433244228e-01  -1.624489086680e-03  -2.076827222481e-03  -2.554906606674e-01 
 -1.494977972470e-03  -1.855978276581e-03  -2.542154192924e-01  -1.494977972470e-03  -1.855978276581e-03  -2.542154192924e-01   0.000000000000e+00  -1.127220366470e-05  -2.464791983366e-01 
  0.000000000000e+00  -1.127220366470e-05  -2.464791983366e-01  -1.546806306578e-03  -3.312846820336e-04  -2.495704889297e-01  -5.203175824136e-04  -6.974215648370e-05  -2.577945590019e-01 
 -7.348693907261e-04   2.391310554231e-04  -2.580166459084e-01  -8.794001769274e-04   6.257162312977e-04  -2.591693103313e-01  -1.813179231249e-03   9.283197578043e-04  -2.578398585320e-01 
 -1.890541519970e-03   7.041823701002e-04  -2.558616995811e-01  -1.962085487321e-03   2.483306452632e-04  -2.519890666008e-01  -1.962085487321e-03   2.483306452632e-04  -2.519890666008e-01 
  0.000000000000e+00   3.004271129612e-04  -2.487300634384e-01   0.000000000000e+00   3.004271129612e-04  -2.487300634384e-01  -1.526100793853e-03   2.933506038971e-04  -2.526898086071e-01 
 -8.924585999921e-04  -7.802042091498e-05  -2.579317390919e-01  -1.079084235243e-03  -4.346326168161e-04  -2.555209696293e-01  -5.223790649325e-04   1.701879341454e-06  -2.572934627533e-01 
 -1.144066220149e-03   6.736722425558e-04  -2.574024796486e-01  -1.363666495308e-03   1.119628315791e-03  -2.577624022961e-01  -1.562032266520e-03   1.443876535632e-03  -2.559946775436e-01 