# vtk DataFile Version 2.0
Written using VisIt writer
ASCII
DATASET RECTILINEAR_GRID
DIMENSIONS 10 10 10
X_COORDINATES 10 float
  0.000000000000e+00   5.000000000000e-01   1.000000000000e+00   1.500000000000e+00   2.000000000000e+00   2.500000000000e+00   3.000000000000e+00   3.500000000000e+00   4.000000000000e+00 
  4.500000000000e+00 
Y_COORDINATES 10 float
  0.000000000000e+00   5.000000000000e-01   1.000000000000e+00   1.500000000000e+00   2.000000000000e+00   2.500000000000e+00   3.000000000000e+00   3.500000000000e+00   4.000000000000e+00 
  4.500000000000e+00 
Z_COORDINATES 10 float
  0.000000000000e+00   5.000000000000e-01   1.000000000000e+00   1.500000000000e+00   2.000000000000e+00   2.500000000000e+00   3.000000000000e+00   3.500000000000e+00   4.000000000000e+00 
  4.500000000000e+00 
CELL_DATA 729
POINT_DATA 1000
VECTORS velocity float
  0.000000000000e+00  -9.266602247953e-02  -1.936672180891e-01   3.251200000000e+04   0.000000000000e+00   0.000000000000e+00   0.000000000000e+00   0.000000000000e+00   0.000000000000e+00 
  1.322005391121e-01  -5.158245563507e-02  -1.442128270864e-01   0.000000000000e+00   0.000000000000e+00   0.000000000000e+00   0.000000000000e+00   1.431655808000e+09   1.070945600000e+09 
  1.034374386072e-01  -7.242699712515e-02  -1.579848676920e-01   1.071994176000e+09   0.000000000000e+00   0.000000000000e+00   0.000000000000e+00   0.000000000000e+00   0.000000000000e+00 
  2.842248976231e-01  -1.078415736556e-01  -1.768785566092e-01   0.000000000000e+00  -9.266602247953e-02  -1.936672180891e-01   1.070945600000e+09   0.000000000000e+00   0.000000000000e+00 
  9.014870226383e-02  -8.131462335587e-02  -1.764221191406e-01   1.322005391121e-01  -5.158245563507e-02  -1.442128270864e-01   1.431655808000e+09   1.070945600000e+09   0.000000000000e+00 
  1.065606996417e-01  -4.252312332392e-02  -1.346336305141e-01   1.034374386072e-01  -7.242699712515e-02  -1.579848676920e-01   0.000000000000e+00   0.000000000000e+00   1.071644672000e+09 
  2.842248976231e-01  -1.078415736556e-01  -1.768785566092e-01   2.842248976231e-01  -1.078415736556e-01  -1.768785566092e-01   0.000000000000e+00   4.687120020390e-02  -1.628712266684e-01 
  0.000000000000e+00   4.687120020390e-02  -1.628712266684e-01  -1.448508817703e-02  -1.498846113682e-01  -1.731726527214e-01   4.479325842112e-03  -3.044788241386e-01  -1.747268885374e-01 
 -2.607862930745e-03  -2.533039152622e-01  -1.813323646784e-01   6.232441589236e-02  -1.151630878448e-01  -1.386002302170e-01   1.114792823792e-01   9.743717499077e-03  -1.344837546349e-01 
  7.918123900890e-02   5.258411541581e-02  -1.308200359344e-01   2.057195305824e-01   1.025335746817e-03  -1.391660422087e-01   2.057195305824e-01   1.025335746817e-03  -1.391660422087e-01 
  0.000000000000e+00  -2.969534881413e-02  -1.612610965967e-01   0.000000000000e+00  -2.969534881413e-02  -1.612610965967e-01   4.904662072659e-02   1.891880482435e-02  -1.520230919123e-01 
  7.040893193334e-03   1.578521542251e-02  -1.290929019451e-01   2.495247498155e-02  -1.446630153805e-02  -1.381881535053e-01   5.714183673263e-02  -1.447988450527e-01  -1.439518928528e-01 
  3.942150622606e-02  -3.542229160666e-02  -1.783011853695e-01   1.462271362543e-01   8.789828419685e-02  -1.320186108351e-01   1.793093234301e-01   3.280678018928e-02  -1.282929927111e-01 
  1.793093234301e-01   3.280678018928e-02  -1.282929927111e-01   0.000000000000e+00  -8.726266771555e-02  -1.753759831190e-01   0.000000000000e+00  -8.726266771555e-02  -1.753759831190e-01 
 -1.653553545475e-02  -1.314282976091e-02  -1.944341361523e-01   1.139794737101e-01   2.438287623227e-02  -1.349032819271e-01   7.993235439062e-02   6.014790013433e-02  -1.290454417467e-01 
  9.675588458776e-02   4.306285828352e-02  -1.226841881871e-01   6.933730840683e-02   1.559790223837e-02  -1.459560394287e-01   9.723204374313e-02  -1.650676503778e-02  -1.533072888851e-01 
  2.300509363413e-01  -4.259270802140e-02  -1.770866662264e-01   2.300509363413e-01  -4.259270802140e-02  -1.770866662264e-01   0.000000000000e+00  -1.826200075448e-02  -1.600856631994e-01 
  0.000000000000e+00  -1.826200075448e-02  -1.600856631994e-01   3.440820053220e-02   2.871309220791e-02  -1.646586209536e-01   7.740315049887e-02  -5.083078145981e-02  -1.578571051359e-01 
  1.933022029698e-02  -6.204880401492e-02  -1.844239383936e-01   1.186057254672e-01   3.089270554483e-02  -1.370416581631e-01   1.047771796584e-01   7.654940336943e-02  -1.319523751736e-01 
  9.687442332506e-02   1.792552694678e-02  -1.303142607212e-01   2.159767299891e-01  -4.944036900997e-02  -1.438692361116e-01   2.159767299891e-01  -4.944036900997e-02  -1.438692361116e-01 
  0.000000000000e+00  -1.274426728487e-01  -1.697692871094e-01   0.000000000000e+00  -1.274426728487e-01  -1.697692871094e-01   1.348028182983e-01   7.171344943345e-03  -1.508387029171e-01 
  2.217419818044e-02   3.110913187265e-02  -1.384487748146e-01   4.485487472266e-03   2.111825533211e-02  -1.519631594419e-01   3.674805164337e-02  -6.494154036045e-02  -1.608460694551e-01 
  5.374366044998e-02   3.331371024251e-02  -1.765801161528e-01   2.040931731462e-01   2.616779319942e-02  -1.322803795338e-01   2.137377858162e-01  -4.592028632760e-02  -1.357172429562e-01 
  2.137377858162e-01  -4.592028632760e-02  -1.357172429562e-01   0.000000000000e+00  -1.802927106619e-01  -2.050726711750e-01   0.000000000000e+00  -1.802927106619e-01  -2.050726711750e-01 
 -2.393383160233e-02  -8.348541450687e-04  -2.015066295862e-01   5.439382418990e-02   7.310476619750e-03  -1.476864218712e-01   3.194139152765e-02  -4.075609147549e-03  -1.447598040104e-01 
  1.155984215438e-02   2.412470057607e-02  -1.320532560349e-01   3.984653577209e-02  -1.636601798236e-02  -1.490393429995e-01   1.729244440794e-01  -6.414671242237e-02  -1.616395860910e-01 
  1.906788349152e-01  -3.750963136554e-02  -2.030003666878e-01   1.906788349152e-01  -3.750963136554e-02  -2.030003666878e-01   0.000000000000e+00   0.000000000000e+00  -1.612817794085e-01 
  0.000000000000e+00   0.000000000000e+00  -1.612817794085e-01  -6.925009191036e-02   0.000000000000e+00  -1.701392978430e-01  -9.895517677069e-02   0.000000000000e+00  -1.655623614788e-01 
  2.886697882786e-03   0.000000000000e+00  -1.823666393757e-01   1.776872426271e-01   0.000000000000e+00  -1.243417561054e-01   1.793904453516e-01   0.000000000000e+00  -1.269187331200e-01 
  2.570448517799e-01   0.000000000000e+00  -1.232462823391e-01   2.785893976688e-01   0.000000000000e+00  -1.318597048521e-01   2.785893976688e-01   0.000000000000e+00  -1.318597048521e-01 
  0.000000000000e+00   0.000000000000e+00  -1.612817794085e-01   0.000000000000e+00   0.000000000000e+00  -1.612817794085e-01  -6.925009191036e-02   0.000000000000e+00  -1.701392978430e-01 
 -9.895517677069e-02   0.000000000000e+00  -1.655623614788e-01   2.886697882786e-03   0.000000000000e+00  -1.823666393757e-01   1.776872426271e-01   0.000000000000e+00  -1.243417561054e-01 
  1.793904453516e-01   0.000000000000e+00  -1.269187331200e-01   2.570448517799e-01   0.000000000000e+00  -1.232462823391e-01   2.785893976688e-01   0.000000000000e+00  -1.318597048521e-01 
  2.785893976688e-01   0.000000000000e+00  -1.318597048521e-01   0.000000000000e+00  -9.266602247953e-02  -1.936672180891e-01   0.000000000000e+00  -9.266602247953e-02  -1.936672180891e-01 
  9.014870226383e-02  -8.131462335587e-02  -1.764221191406e-01   1.322005391121e-01  -5.158245563507e-02  -1.442128270864e-01   7.908071577549e-02  -4.495972394943e-02  -1.387475430965e-01 
  1.065606996417e-01  -4.252312332392e-02  -1.346336305141e-01   1.034374386072e-01  -7.242699712515e-02  -1.579848676920e-01   1.945291310549e-01  -7.902049273252e-02  -1.611826121807e-01 
  2.842248976231e-01  -1.078415736556e-01  -1.768785566092e-01   2.842248976231e-01  -1.078415736556e-01  -1.768785566092e-01   0.000000000000e+00  -9.266602247953e-02  -1.936672180891e-01 
  0.000000000000e+00  -9.266602247953e-02  -1.936672180891e-01   9.014870226383e-02  -8.131462335587e-02  -1.764221191406e-01   1.322005391121e-01  -5.158245563507e-02  -1.442128270864e-01 
  7.908071577549e-02  -4.495972394943e-02  -1.387475430965e-01   1.065606996417e-01  -4.252312332392e-02  -1.346336305141e-01   1.034374386072e-01  -7.242699712515e-02  -1.579848676920e-01 
  1.945291310549e-01  -7.902049273252e-02  -1.611826121807e-01   2.842248976231e-01  -1.078415736556e-01  -1.768785566092e-01   2.842248976231e-01  -1.078415736556e-01  -1.768785566092e-01 
  0.000000000000e+00   4.687120020390e-02  -1.628712266684e-01   0.000000000000e+00   4.687120020390e-02  -1.628712266684e-01  -1.448508817703e-02  -1.498846113682e-01  -1.731726527214e-01 
  4.479325842112e-03  -3.044788241386e-01  -1.747268885374e-01  -2.607862930745e-03  -2.533039152622e-01  -1.813323646784e-01   6.232441589236e-02  -1.151630878448e-01  -1.386002302170e-01 
  1.114792823792e-01   9.743717499077e-03  -1.344837546349e-01   7.918123900890e-02   5.258411541581e-02  -1.308200359344e-01   2.057195305824e-01   1.025335746817e-03  -1.391660422087e-01 
  2.057195305824e-01   1.025335746817e-03  -1.391660422087e-01   0.000000000000e+00  -2.969534881413e-02  -1.612610965967e-01   0.000000000000e+00  -2.969534881413e-02  -1.612610965967e-01 
  4.904662072659e-02   1.891880482435e-02  -1.520230919123e-01   7.040893193334e-03   1.578521542251e-02  -1.290929019451e-01   2.495247498155e-02  -1.446630153805e-02  -1.381881535053e-01 
  5.714183673263e-02  -1.447988450527e-01  -1.439518928528e-01   3.942150622606e-02  -3.542229160666e-02  -1.783011853695e-01   1.462271362543e-01   8.789828419685e-02  -1.320186108351e-01 
  1.793093234301e-01   3.280678018928e-02  -1.282929927111e-01   1.793093234301e-01   3.280678018928e-02  -1.282929927111e-01   0.000000000000e+00  -8.726266771555e-02  -1.753759831190e-01 
  0.000000000000e+00  -8.726266771555e-02  -1.753759831190e-01  -1.653553545475e-02  -1.314282976091e-02  -1.944341361523e-01   1.139794737101e-01   2.438287623227e-02  -1.349032819271e-01 
  7.993235439062e-02   6.014790013433e-02  -1.290454417467e-01   9.675588458776e-02   4.306285828352e-02  -1.226841881871e-01   6.933730840683e-02   1.559790223837e-02  -1.459560394287e-01 
  9.723204374313e-02  -1.650676503778e-02  -1.533072888851e-01   2.300509363413e-01  -4.259270802140e-02  -1.770866662264e-01   2.300509363413e-01  -4.259270802140e-02  -1.770866662264e-01 
  0.000000000000e+00  -1.826200075448e-02  -1.600856631994e-01   0.000000000000e+00  -1.826200075448e-02  -1.600856631994e-01   3.440820053220e-02   2.871309220791e-02  -1.646586209536e-01 
  7.740315049887e-02  -5.083078145981e-02  -1.578571051359e-01   1.933022029698e-02  -6.204880401492e-02  -1.844239383936e-01   1.186057254672e-01   3.089270554483e-02  -1.370416581631e-01 
  1.047771796584e-01   7.654940336943e-02  -1.319523751736e-01   9.687442332506e-02   1.792552694678e-02  -1.303142607212e-01   2.159767299891e-01  -4.944036900997e-02  -1.438692361116e-01 
  2.159767299891e-01  -4.944036900997e-02  -1.438692361116e-01   0.000000000000e+00  -1.274426728487e-01  -1.697692871094e-01   0.000000000000e+00  -1.274426728487e-01  -1.697692871094e-01 
  1.348028182983e-01   7.171344943345e-03  -1.508387029171e-01   2.217419818044e-02   3.110913187265e-02  -1.384487748146e-01   4.485487472266e-03   2.111825533211e-02  -1.519631594419e-01 
  3.674805164337e-02  -6.494154036045e-02  -1.608460694551e-01   5.374366044998e-02   3.331371024251e-02  -1.765801161528e-01   2.040931731462e-01   2.616779319942e-02  -1.322803795338e-01 
  2.137377858162e-01  -4.592028632760e-02  -1.357172429562e-01   2.137377858162e-01  -4.592028632760e-02  -1.357172429562e-01   0.000000000000e+00  -1.802927106619e-01  -2.050726711750e-01 
  0.000000000000e+00  -1.802927106619e-01  -2.050726711750e-01  -2.393383160233e-02  -8.348541450687e-04  -2.015066295862e-01   5.439382418990e-02   7.310476619750e-03  -1.476864218712e-01 
  3.194139152765e-02  -4.075609147549e-03  -1.447598040104e-01   1.155984215438e-02   2.412470057607e-02  -1.320532560349e-01   3.984653577209e-02  -1.636601798236e-02  -1.490393429995e-01 
  1.729244440794e-01  -6.414671242237e-02  -1.616395860910e-01   1.906788349152e-01  -3.750963136554e-02  -2.030003666878e-01   1.906788349152e-01  -3.750963136554e-02  -2.030003666878e-01 
  0.000000000000e+00   0.000000000000e+00  -1.612817794085e-01   0.000000000000e+00   0.000000000000e+00  -1.612817794085e-01  -6.925009191036e-02   0.000000000000e+00  -1.701392978430e-01 
 -9.895517677069e-02   0.000000000000e+00  -1.655623614788e-01   2.886697882786e-03   0.000000000000e+00  -1.823666393757e-01   1.776872426271e-01   0.000000000000e+00  -1.243417561054e-01 
  1.793904453516e-01   0.000000000000e+00  -1.269187331200e-01   2.570448517799e-01   0.000000000000e+00  -1.232462823391e-01   2.785893976688e-01   0.000000000000e+00  -1.318597048521e-01 
  2.785893976688e-01   0.000000000000e+00  -1.318597048521e-01   0.000000000000e+00   0.000000000000e+00  -1.612817794085e-01   0.000000000000e+00   0.000000000000e+00  -1.612817794085e-01 
 -6.925009191036e-02   0.000000000000e+00  -1.701392978430e-01  -9.895517677069e-02   0.000000000000e+00  -1.655623614788e-01   2.886697882786e-03   0.000000000000e+00  -1.823666393757e-01 
  1.776872426271e-01   0.000000000000e+00  -1.243417561054e-01   1.793904453516e-01   0.000000000000e+00  -1.269187331200e-01   2.570448517799e-01   0.000000000000e+00  -1.232462823391e-01 
  2.785893976688e-01   0.000000000000e+00  -1.318597048521e-01   2.785893976688e-01   0.000000000000e+00  -1.318597048521e-01   0.000000000000e+00  -7.016386836767e-02  -7.255291342735e-01 
  0.000000000000e+00  -7.016386836767e-02  -7.255291342735e-01   1.876106262207e-01   2.047268450260e-01  -6.804201006889e-01  -2.410454116762e-02   5.120712518692e-01  -7.135674953461e-01 
 -2.663747966290e-01  -1.025801450014e-01  -7.175495028496e-01   3.938630521297e-01  -1.232532486320e-01  -9.913527965546e-01   2.431221306324e-01  -6.064957007766e-02  -7.654738426208e-01 
  0.000000000000e+00  -1.233208738267e-02  -3.881738707423e-02   1.405315995216e+00  -3.277695924044e-02  -9.931631088257e-01   1.405315995216e+00  -3.277695924044e-02  -9.931631088257e-01 
  0.000000000000e+00  -7.016386836767e-02  -7.255291342735e-01   0.000000000000e+00  -7.016386836767e-02  -7.255291342735e-01   1.876106262207e-01   2.047268450260e-01  -6.804201006889e-01 
 -2.410454116762e-02   5.120712518692e-01  -7.135674953461e-01  -2.663747966290e-01  -1.025801450014e-01  -7.175495028496e-01   3.938630521297e-01  -1.232532486320e-01  -9.913527965546e-01 
  2.431221306324e-01  -6.064957007766e-02  -7.654738426208e-01   0.000000000000e+00  -1.233208738267e-02  -3.881738707423e-02   1.405315995216e+00  -3.277695924044e-02  -9.931631088257e-01 
  1.405315995216e+00  -3.277695924044e-02  -9.931631088257e-01   0.000000000000e+00   1.522595584393e-01  -5.960391163826e-01   0.000000000000e+00   1.522595584393e-01  -5.960391163826e-01 
  2.011087983847e-01   1.692151874304e-01  -3.337838053703e-01   7.144748419523e-02   4.766320884228e-01  -7.370859384537e-01  -7.978548109531e-02  -1.917687058449e-01  -3.705236911774e-01 
  1.797268092632e-01  -1.285003274679e-01  -5.182352066040e-01   1.624843627214e-01  -4.362264648080e-02  -5.502802133560e-01   7.400149852037e-02   3.790997341275e-02  -6.917995959520e-02 
  2.246752381325e-01   1.650696853176e-03  -6.083396449685e-02   2.246752381325e-01   1.650696853176e-03  -6.083396449685e-02   0.000000000000e+00  -2.709414064884e-01  -8.063123226166e-01 
  0.000000000000e+00  -2.709414064884e-01  -8.063123226166e-01   3.196704387665e-01  -3.711371868849e-02  -8.717249631882e-01   1.648646444082e-01  -1.511733396910e-03  -8.583010435104e-01 
  5.617697909474e-02  -1.218184921890e-02  -4.730698168278e-01   1.090191900730e-01   4.285103455186e-02  -5.604809895158e-02   9.563861787319e-02  -2.677465230227e-02  -2.169881761074e-02 
  1.449136883020e-01   8.461501449347e-02  -6.798138469458e-02   1.793567389250e-01   3.285945579410e-02  -7.170701026917e-02   1.793567389250e-01   3.285945579410e-02  -7.170701026917e-02 
  0.000000000000e+00  -3.807393461466e-02  -8.949686288834e-01   0.000000000000e+00  -3.807393461466e-02  -8.949686288834e-01   2.327378541231e-01   2.325084507465e-01  -7.866779565811e-01 
  2.440208047628e-01   9.135767817497e-02  -2.401883155107e-01   6.843294948339e-02   5.164714902639e-02  -7.095456123352e-02   4.648273289204e-01   0.000000000000e+00  -5.294564366341e-01 
  4.445430636406e-01   1.497472170740e-02  -5.061845779419e-01   1.025272831321e-01  -1.555824838579e-02  -4.669271036983e-02   2.261102348566e-01  -4.256519675255e-02  -2.291333116591e-02 
  2.261102348566e-01  -4.256519675255e-02  -2.291333116591e-02   0.000000000000e+00   5.191425327212e-03  -1.173648118973e+00   0.000000000000e+00   5.191425327212e-03  -1.173648118973e+00 
  2.461474537849e-01   3.294625282288e-01  -1.078325510025e+00   5.006158947945e-01   1.172350794077e-01  -1.524865269661e+00   0.000000000000e+00  -3.711694478989e-02  -1.557605899870e-02 
  1.119094491005e+00  -9.147406555712e-03  -5.561183691025e-01   1.091011047363e+00   4.035681858659e-02  -6.141562461853e-01   0.000000000000e+00   2.110508084297e-02  -6.968573480844e-02 
  0.000000000000e+00  -4.820616915822e-02  -5.613075569272e-02   0.000000000000e+00  -4.820616915822e-02  -5.613075569272e-02   0.000000000000e+00  -1.175974383950e-01  -1.015708923340e+00 
  0.000000000000e+00  -1.175974383950e-01  -1.015708923340e+00   2.876180410385e-01   6.084207892418e-01  -1.534265518188e+00   3.256936967373e-01   2.383366227150e-01  -1.052361249924e+00 
  7.713228464127e-02  -5.794519092888e-03  -2.663975000381e+00   1.134918034077e-01  -3.723081573844e-02  -1.857540130615e+00   3.820949494839e-01   1.269123982638e-02  -1.872192025185e+00 
  1.889955550432e-01   2.422253228724e-02  -2.379123449326e+00   2.102639675140e-01  -4.469697922468e-02  -1.787855148315e+00   2.102639675140e-01  -4.469697922468e-02  -1.787855148315e+00 
  0.000000000000e+00  -3.278606832027e-01  -1.017058610916e+00   0.000000000000e+00  -3.278606832027e-01  -1.017058610916e+00   2.739537656307e-01  -9.084556251764e-02  -1.416113495827e+00 
  8.086138367653e-01   8.123495429754e-02  -1.347504138947e+00   6.855556964874e-01  -3.169918200001e-03  -2.236226320267e+00   9.460508078337e-02   1.049014087766e-02  -2.056219100952e+00 
  3.782009705901e-02  -1.168773230165e-02  -2.616743803024e+00   1.698411852121e-01  -6.249322369695e-02  -2.502554893494e+00   1.906257569790e-01  -3.753511235118e-02  -2.003179550171e+00 
  1.906257569790e-01  -3.753511235118e-02  -2.003179550171e+00   0.000000000000e+00   0.000000000000e+00  -1.210020542145e+00   0.000000000000e+00   0.000000000000e+00  -1.210020542145e+00 
  9.880073368549e-02  -3.710421733558e-04  -8.673486113548e-01   5.777817964554e-01   0.000000000000e+00  -1.575429558754e+00  -1.094594895840e-01   0.000000000000e+00  -6.067378818989e-02 
 -5.554156005383e-02   0.000000000000e+00   1.269275665283e+00   0.000000000000e+00   0.000000000000e+00  -3.072639942169e+00   0.000000000000e+00   0.000000000000e+00  -3.070610284805e+00 
  0.000000000000e+00   0.000000000000e+00  -6.814029812813e-02   0.000000000000e+00   0.000000000000e+00  -6.814029812813e-02   0.000000000000e+00   0.000000000000e+00  -1.210020542145e+00 
  0.000000000000e+00   0.000000000000e+00  -1.210020542145e+00   9.880073368549e-02  -3.710421733558e-04  -8.673486113548e-01   5.777817964554e-01   0.000000000000e+00  -1.575429558754e+00 
 -1.094594895840e-01   0.000000000000e+00  -6.067378818989e-02  -5.554156005383e-02   0.000000000000e+00   1.269275665283e+00   0.000000000000e+00   0.000000000000e+00  -3.072639942169e+00 
  0.000000000000e+00   0.000000000000e+00  -3.070610284805e+00   0.000000000000e+00   0.000000000000e+00  -6.814029812813e-02   0.000000000000e+00   0.000000000000e+00  -6.814029812813e-02 
  0.000000000000e+00  -6.123294308782e-02  -8.485406637192e-01   0.000000000000e+00  -6.123294308782e-02  -8.485406637192e-01   2.698747217655e-01  -7.311695814133e-02  -6.853209733963e-01 
  2.851011753082e-01   2.203147113323e-01  -1.008217573166e+00   0.000000000000e+00  -1.560223251581e-01  -6.566249132156e-01   2.247639149427e-01  -2.117179632187e-01  -5.754731297493e-01 
  2.247639149427e-01  -1.173044666648e-01  -5.945605039597e-01   0.000000000000e+00   1.471150014549e-02  -1.000000014901e-01   0.000000000000e+00   0.000000000000e+00  -1.000000014901e-01 
  0.000000000000e+00   0.000000000000e+00  -1.000000014901e-01   0.000000000000e+00  -6.123294308782e-02  -8.485406637192e-01   0.000000000000e+00  -6.123294308782e-02  -8.485406637192e-01 
  2.698747217655e-01  -7.311695814133e-02  -6.853209733963e-01   2.851011753082e-01   2.203147113323e-01  -1.008217573166e+00   0.000000000000e+00  -1.560223251581e-01  -6.566249132156e-01 
  2.247639149427e-01  -2.117179632187e-01  -5.754731297493e-01   2.247639149427e-01  -1.173044666648e-01  -5.945605039597e-01   0.000000000000e+00   1.471150014549e-02  -1.000000014901e-01 
  0.000000000000e+00   0.000000000000e+00  -1.000000014901e-01   0.000000000000e+00   0.000000000000e+00  -1.000000014901e-01   0.000000000000e+00   6.813682615757e-02  -2.397124469280e-01 
  0.000000000000e+00   6.813682615757e-02  -2.397124469280e-01   7.424101978540e-02  -4.937693104148e-02  -2.434512972832e-01   1.477665454149e-01   2.156901657581e-01  -7.656781077385e-01 
  8.890260942280e-03  -1.875591874123e-01  -4.703522324562e-01   1.939659714699e-01  -2.117179632187e-01  -5.945605039597e-01   1.849569082260e-01  -1.021437719464e-01  -5.667877197266e-01 
  6.606566160917e-02   1.583274826407e-02  -7.575415819883e-02   0.000000000000e+00   0.000000000000e+00  -1.000000014901e-01   0.000000000000e+00   0.000000000000e+00  -1.000000014901e-01 
  0.000000000000e+00  -2.710919678211e-01  -1.752693504095e-01   0.000000000000e+00  -2.710919678211e-01  -1.752693504095e-01   1.441453695297e-01  -1.835994124413e-01  -2.125527262688e-01 
  1.542207002640e-01  -6.461796164513e-02  -5.452027320862e-01   8.448306471109e-02  -2.827451936901e-02  -4.887893199921e-01   1.401444673538e-01   0.000000000000e+00  -1.842372864485e-01 
  1.377423107624e-01  -3.084610961378e-02  -7.237987220287e-02   1.422885209322e-01   7.186090201139e-02  -6.863844394684e-02   1.711836308241e-01   0.000000000000e+00  -1.000000014901e-01 
  1.711836308241e-01   0.000000000000e+00  -1.000000014901e-01   0.000000000000e+00  -1.673743128777e-01  -3.574894368649e-01   0.000000000000e+00  -1.673743128777e-01  -3.574894368649e-01 
  2.847701497376e-02  -3.288029506803e-02  -3.838885724545e-01   5.493031442165e-02   1.875527761877e-02  -3.920407593250e-01   1.350029706955e-01   4.465287551284e-02  -1.659201830626e-01 
  3.102099597454e-01   0.000000000000e+00  -5.521405935287e-01   3.012195527554e-01   1.370044052601e-02  -5.233168005943e-01   1.084616407752e-01  -1.495156344026e-02  -8.967360109091e-02 
  2.149739265442e-01   0.000000000000e+00  -2.364667132497e-02   2.149739265442e-01   0.000000000000e+00  -2.364667132497e-02   0.000000000000e+00   2.395612895489e-01  -1.489315479994e-01 
  0.000000000000e+00   2.395612895489e-01  -1.489315479994e-01   3.082176856697e-02   2.133996933699e-01  -1.419597566128e-01   1.281238198280e-01   2.016426175833e-01  -7.731518149376e-01 
  2.913427650928e-01  -2.002358064055e-02  -1.000000014901e-01   0.000000000000e+00   0.000000000000e+00  -5.661823153496e-01   0.000000000000e+00   2.419230155647e-02  -5.521405935287e-01 
  0.000000000000e+00   2.172824554145e-02  -1.000000014901e-01   0.000000000000e+00  -4.457557201385e-02  -1.000000014901e-01   0.000000000000e+00  -4.457557201385e-02  -1.000000014901e-01 
  0.000000000000e+00   2.321835756302e-01  -4.606989920139e-01   0.000000000000e+00   2.321835756302e-01  -4.606989920139e-01   1.236043423414e-01   3.881818354130e-01  -6.997586488724e-01 
  1.836206018925e-01   2.585973739624e-01  -9.762179255486e-01   9.735302925110e-01   1.001185388304e-03  -1.648401737213e+00   6.210577487946e-01   0.000000000000e+00  -1.000000014901e-01 
  2.435209453106e-01   1.148037612438e-02  -1.294385313988e+00   1.663917005062e-01   2.162487991154e-02  -2.171242237091e+00   2.007492780685e-01  -4.126443713903e-02  -1.786556243896e+00 
  2.007492780685e-01  -4.126443713903e-02  -1.786556243896e+00   0.000000000000e+00  -8.643817901611e-02  -5.046358108521e-01   0.000000000000e+00  -8.643817901611e-02  -5.046358108521e-01 
  4.015301540494e-02   9.348934888840e-02  -9.012494683266e-01   1.099235057831e+00   8.972422778606e-02  -1.504764080048e+00   2.138860464096e+00   4.373852536082e-02  -5.464846491814e-01 
  1.085173726082e+00   2.033973298967e-02  -1.006482124329e+00   2.873978018761e-01  -2.592577598989e-03  -2.248811960220e+00   1.688306182623e-01  -5.619160085917e-02  -2.486062288284e+00 
  1.898809522390e-01  -3.769051283598e-02  -2.003538608551e+00   1.898809522390e-01  -3.769051283598e-02  -2.003538608551e+00   0.000000000000e+00   0.000000000000e+00  -7.690728902817e-01 
  0.000000000000e+00   0.000000000000e+00  -7.690728902817e-01   9.353575855494e-02   2.144506573677e-02  -9.471021890640e-01   6.187491416931e-01   0.000000000000e+00  -1.000854015350e+00 
  4.718330875039e-02   0.000000000000e+00   1.018032431602e+00  -9.712573885918e-02   0.000000000000e+00   1.244933843613e+00   0.000000000000e+00   0.000000000000e+00  -1.000000014901e-01 
  0.000000000000e+00   0.000000000000e+00  -1.000000014901e-01   0.000000000000e+00   0.000000000000e+00  -1.000000014901e-01   0.000000000000e+00   0.000000000000e+00  -1.000000014901e-01 
  0.000000000000e+00   0.000000000000e+00  -7.690728902817e-01   0.000000000000e+00   0.000000000000e+00  -7.690728902817e-01   9.353575855494e-02   2.144506573677e-02  -9.471021890640e-01 
  6.187491416931e-01   0.000000000000e+00  -1.000854015350e+00   4.718330875039e-02   0.000000000000e+00   1.018032431602e+00  -9.712573885918e-02   0.000000000000e+00   1.244933843613e+00 
  0.000000000000e+00   0.000000000000e+00  -1.000000014901e-01   0.000000000000e+00   0.000000000000e+00  -1.000000014901e-01   0.000000000000e+00   0.000000000000e+00  -1.000000014901e-01 
  0.000000000000e+00   0.000000000000e+00  -1.000000014901e-01   0.000000000000e+00  -8.346326649189e-02  -4.905345737934e-01   0.000000000000e+00  -8.346326649189e-02  -4.905345737934e-01 
  1.366633027792e-01  -2.035453356802e-02  -7.910118103027e-01   3.064973056316e-01   3.503635898232e-02  -1.963085055351e+00   0.000000000000e+00   4.014904424548e-02  -1.000000014901e-01 
  0.000000000000e+00  -1.995665132999e-01  -1.000000014901e-01   0.000000000000e+00  -1.416893117130e-02  -1.000000014901e-01   0.000000000000e+00   3.227075561881e-02  -1.000000014901e-01 
  8.492215275764e-01  -1.648876443505e-02  -2.054201602936e+00   8.492215275764e-01  -1.648876443505e-02  -2.054201602936e+00   0.000000000000e+00  -8.346326649189e-02  -4.905345737934e-01 
  0.000000000000e+00  -8.346326649189e-02  -4.905345737934e-01   1.366633027792e-01  -2.035453356802e-02  -7.910118103027e-01   3.064973056316e-01   3.503635898232e-02  -1.963085055351e+00 
  0.000000000000e+00   4.014904424548e-02  -1.000000014901e-01   0.000000000000e+00  -1.995665132999e-01  -1.000000014901e-01   0.000000000000e+00  -1.416893117130e-02  -1.000000014901e-01 
  0.000000000000e+00   3.227075561881e-02  -1.000000014901e-01   8.492215275764e-01  -1.648876443505e-02  -2.054201602936e+00   8.492215275764e-01  -1.648876443505e-02  -2.054201602936e+00 
  0.000000000000e+00  -2.434699982405e-01  -3.580023050308e-01   0.000000000000e+00  -2.434699982405e-01  -3.580023050308e-01   7.844229042530e-02  -5.092999897897e-03  -5.737276673317e-01 
  1.759322881699e-01   4.024965688586e-02  -1.128113508224e+00   8.490774780512e-02   4.067036136985e-02  -3.088145852089e-01   1.163366660476e-01  -2.011790424585e-01  -1.000000014901e-01 
  1.102717444301e-01  -1.611071638763e-02  -3.076499104500e-01   7.308399304748e-03   3.227075561881e-02  -1.000000014901e-01   0.000000000000e+00   8.103027194738e-02  -1.000000014901e-01 
  0.000000000000e+00   8.103027194738e-02  -1.000000014901e-01   0.000000000000e+00   5.219487845898e-02  -2.551641464233e-01   0.000000000000e+00   5.219487845898e-02  -2.551641464233e-01 
  8.098342269659e-02   1.669201999903e-02  -2.394065558910e-01   8.311126381159e-02   3.784994361922e-03  -3.323820829391e-01   8.664045482874e-02  -1.184263499454e-03  -3.959592282772e-01 
  1.380330622196e-01  -5.811038985848e-02  -1.870490759611e-01   1.511171162128e-01  -1.000642497092e-02  -1.010038629174e-01   6.663479655981e-02   2.247845195234e-02  -8.700596541166e-02 
  3.755227848887e-02   0.000000000000e+00  -1.000000014901e-01   3.755227848887e-02   0.000000000000e+00  -1.000000014901e-01   0.000000000000e+00   3.170702755451e-01   1.420989632607e-01 
  0.000000000000e+00   3.170702755451e-01   1.420989632607e-01  -7.690752297640e-02   2.442824244499e-01   3.438592702150e-02   0.000000000000e+00   1.623606979847e-01  -8.641901612282e-02 
  1.025767847896e-01   1.170705333352e-01  -1.849059760571e-01   1.836057901382e-01   2.655564434826e-02  -1.000000014901e-01   2.069748491049e-01   1.345040649176e-02  -3.522931635380e-01 
  1.029910147190e-01  -5.684191710316e-04  -9.113655984402e-02   1.469954103231e-01   0.000000000000e+00  -1.000000014901e-01   1.469954103231e-01   0.000000000000e+00  -1.000000014901e-01 
  0.000000000000e+00   3.522476851940e-01  -2.918610870838e-01   0.000000000000e+00   3.522476851940e-01  -2.918610870838e-01   2.395164966583e-02   1.817932352424e-02  -8.365558087826e-02 
  2.102130651474e-01   0.000000000000e+00  -2.892105579376e-01   2.552593052387e-01   1.423473060131e-01  -2.329714447260e-01   0.000000000000e+00   4.393409937620e-02  -1.000000014901e-01 
  0.000000000000e+00   3.254528343678e-02  -1.000000014901e-01   0.000000000000e+00   2.152762934566e-02  -1.000000014901e-01   1.219809893519e-02   0.000000000000e+00  -1.000000014901e-01 