# vtk DataFile Version 2.0
Written using VisIt writer
ASCII
DATASET RECTILINEAR_GRID
DIMENSIONS 10 10 10
X_COORDINATES 10 float
  0.000000000000e+00   5.000000000000e-01   1.000000000000e+00   1.500000000000e+00   2.000000000000e+00   2.500000000000e+00   3.000000000000e+00   3.500000000000e+00   4.000000000000e+00 
  4.500000000000e+00 
Y_COORDINATES 10 float
  0.000000000000e+00   5.000000000000e-01   1.000000000000e+00   1.500000000000e+00   2.000000000000e+00   2.500000000000e+00   3.000000000000e+00   3.500000000000e+00   4.000000000000e+00 
  4.500000000000e+00 
Z_COORDINATES 10 float
  0.000000000000e+00   5.000000000000e-01   1.000000000000e+00   1.500000000000e+00   2.000000000000e+00   2.500000000000e+00   3.000000000000e+00   3.500000000000e+00   4.000000000000e+00 
  4.500000000000e+00 
CELL_DATA 729
POINT_DATA 1000
VECTORS velocity float
  0.000000000000e+00  -1.271698772907e-01  -2.291844189167e-01   3.251200000000e+04   0.000000000000e+00   0.000000000000e+00   0.000000000000e+00   0.000000000000e+00   0.000000000000e+00 
  3.895197063684e-02  -8.589085191488e-02  -1.775509119034e-01   0.000000000000e+00   0.000000000000e+00   0.000000000000e+00   0.000000000000e+00   1.431655808000e+09   1.070945600000e+09 
 -9.979447722435e-02  -9.075592458248e-02  -1.627954840660e-01   1.071994176000e+09   0.000000000000e+00   0.000000000000e+00   0.000000000000e+00   0.000000000000e+00   0.000000000000e+00 
  6.724547594786e-02  -2.096063345671e-01  -1.871923655272e-01   0.000000000000e+00  -1.271698772907e-01  -2.291844189167e-01   1.070945600000e+09   0.000000000000e+00   0.000000000000e+00 
  4.715345799923e-02  -1.189177706838e-01  -2.096221297979e-01   3.895197063684e-02  -8.589085191488e-02  -1.775509119034e-01   1.431655808000e+09   1.070945600000e+09   0.000000000000e+00 
 -4.335379227996e-02  -6.425151973963e-02  -1.405179500580e-01  -9.979447722435e-02  -9.075592458248e-02  -1.627954840660e-01   0.000000000000e+00   0.000000000000e+00   1.071644672000e+09 
  6.724547594786e-02  -2.096063345671e-01  -1.871923655272e-01   6.724547594786e-02  -2.096063345671e-01  -1.871923655272e-01   0.000000000000e+00  -8.430406160187e-05  -1.960827112198e-01 
  0.000000000000e+00  -8.430406160187e-05  -1.960827112198e-01  -1.838014274836e-02  -1.366557180882e-01  -2.069586366415e-01   1.966593861580e-01  -2.659078836441e-01  -2.131068259478e-01 
  7.342792302370e-02  -1.349905729294e-01  -2.003758996725e-01   4.510492458940e-02  -3.431316092610e-02  -1.435880362988e-01   5.497094243765e-03  -2.457822859287e-02  -1.432150602341e-01 
  1.190998591483e-03  -5.454799160361e-02  -1.393054276705e-01   8.180194348097e-02   2.021110244095e-02  -1.551062464714e-01   8.180194348097e-02   2.021110244095e-02  -1.551062464714e-01 
  0.000000000000e+00   4.596222192049e-02  -1.926893740892e-01   0.000000000000e+00   4.596222192049e-02  -1.926893740892e-01   4.215686768293e-02   2.694836817682e-02  -1.747078299522e-01 
  7.752804458141e-02  -2.907961793244e-02  -1.632338613272e-01   4.482449963689e-02  -1.255140304565e-01  -1.602449417114e-01   4.258591309190e-02  -1.618896871805e-01  -1.584341078997e-01 
  6.275527179241e-02  -6.805910915136e-02  -1.853972077370e-01   5.378460139036e-02  -5.207318067551e-02  -1.420453041792e-01   1.119583621621e-01   1.663681678474e-02  -1.372748911381e-01 
  1.119583621621e-01   1.663681678474e-02  -1.372748911381e-01   0.000000000000e+00  -2.118523791432e-02  -2.233386486769e-01   0.000000000000e+00  -2.118523791432e-02  -2.233386486769e-01 
 -5.197149515152e-02  -3.972183540463e-02  -2.193759083748e-01   1.090998053551e-01  -3.856153041124e-02  -1.773172616959e-01   2.711802534759e-02  -7.705731689930e-02  -1.496721506119e-01 
 -4.749545454979e-02  -9.952689707279e-02  -1.511001586914e-01   3.290927782655e-02  -4.051798954606e-02  -1.631731390953e-01   1.444671954960e-02  -4.378362372518e-02  -1.619032621384e-01 
  3.702416317537e-03  -1.362949609756e-01  -1.896660625935e-01   3.702416317537e-03  -1.362949609756e-01  -1.896660625935e-01   0.000000000000e+00   3.008310869336e-02  -1.886377036572e-01 
  0.000000000000e+00   3.008310869336e-02  -1.886377036572e-01  -8.068646304309e-03  -5.263167619705e-02  -1.986433863640e-01   1.182488501072e-01  -2.413942106068e-02  -1.819075345993e-01 
  2.635235525668e-02  -2.609094046056e-02  -1.918730437756e-01   1.060525327921e-01   5.986909940839e-02  -1.436557322741e-01   8.602714538574e-02  -3.705772757530e-02  -1.527703702450e-01 
 -6.129821017385e-02  -2.147778868675e-03  -1.431867182255e-01  -8.464763313532e-02   6.645371671766e-03  -1.506450772285e-01  -8.464763313532e-02   6.645371671766e-03  -1.506450772285e-01 
  0.000000000000e+00  -1.577893830836e-02  -1.994385421276e-01   0.000000000000e+00  -1.577893830836e-02  -1.994385421276e-01  -1.390253455611e-04  -6.443811208010e-02  -1.913838833570e-01 
  5.122221261263e-02   2.318489737809e-02  -1.662601679564e-01   8.368956297636e-02   2.375396341085e-02  -1.568618714809e-01   1.133576706052e-01   3.784728934988e-03  -1.730535179377e-01 
  9.722216427326e-02  -1.551620382816e-02  -1.872543543577e-01   5.016006901860e-02   1.351661607623e-02  -1.458054482937e-01   6.132071092725e-02  -3.160822018981e-02  -1.405753344297e-01 
  6.132071092725e-02  -3.160822018981e-02  -1.405753344297e-01   0.000000000000e+00   1.132325734943e-02  -2.186509966850e-01   0.000000000000e+00   1.132325734943e-02  -2.186509966850e-01 
 -1.665138266981e-02  -5.654284730554e-02  -2.344483733177e-01   1.356424540281e-01   4.875788837671e-02  -1.574749499559e-01   9.724599123001e-02   1.585338637233e-02  -1.392036974430e-01 
  1.199417933822e-01   5.104909092188e-02  -1.359306275845e-01   3.531548753381e-02   2.860622666776e-02  -1.567153036594e-01   3.177111968398e-02  -3.207507357001e-02  -1.631866246462e-01 
  1.888103634119e-01  -9.570215642452e-02  -1.958010494709e-01   1.888103634119e-01  -9.570215642452e-02  -1.958010494709e-01   0.000000000000e+00   0.000000000000e+00  -1.803015023470e-01 
  0.000000000000e+00   0.000000000000e+00  -1.803015023470e-01  -1.210519205779e-02   0.000000000000e+00  -1.746089458466e-01   1.561354286969e-02   0.000000000000e+00  -1.586492657661e-01 
 -1.296645030379e-02   0.000000000000e+00  -1.812125891447e-01   2.543812394142e-01   0.000000000000e+00  -1.255908012390e-01   1.579124331474e-01   0.000000000000e+00  -1.280622035265e-01 
  1.332388669252e-01   0.000000000000e+00  -1.269541829824e-01   2.983831465244e-01   0.000000000000e+00  -1.338701844215e-01   2.983831465244e-01   0.000000000000e+00  -1.338701844215e-01 
  0.000000000000e+00   0.000000000000e+00  -1.803015023470e-01   0.000000000000e+00   0.000000000000e+00  -1.803015023470e-01  -1.210519205779e-02   0.000000000000e+00  -1.746089458466e-01 
  1.561354286969e-02   0.000000000000e+00  -1.586492657661e-01  -1.296645030379e-02   0.000000000000e+00  -1.812125891447e-01   2.543812394142e-01   0.000000000000e+00  -1.255908012390e-01 
  1.579124331474e-01   0.000000000000e+00  -1.280622035265e-01   1.332388669252e-01   0.000000000000e+00  -1.269541829824e-01   2.983831465244e-01   0.000000000000e+00  -1.338701844215e-01 
  2.983831465244e-01   0.000000000000e+00  -1.338701844215e-01   0.000000000000e+00  -1.271698772907e-01  -2.291844189167e-01   0.000000000000e+00  -1.271698772907e-01  -2.291844189167e-01 
  4.715345799923e-02  -1.189177706838e-01  -2.096221297979e-01   3.895197063684e-02  -8.589085191488e-02  -1.775509119034e-01   7.680214196444e-02  -4.942218214273e-02  -1.527176946402e-01 
 -4.335379227996e-02  -6.425151973963e-02  -1.405179500580e-01  -9.979447722435e-02  -9.075592458248e-02  -1.627954840660e-01  -1.078555174172e-02  -1.180150508881e-01  -1.677273362875e-01 
  6.724547594786e-02  -2.096063345671e-01  -1.871923655272e-01   6.724547594786e-02  -2.096063345671e-01  -1.871923655272e-01   0.000000000000e+00  -1.271698772907e-01  -2.291844189167e-01 
  0.000000000000e+00  -1.271698772907e-01  -2.291844189167e-01   4.715345799923e-02  -1.189177706838e-01  -2.096221297979e-01   3.895197063684e-02  -8.589085191488e-02  -1.775509119034e-01 
  7.680214196444e-02  -4.942218214273e-02  -1.527176946402e-01  -4.335379227996e-02  -6.425151973963e-02  -1.405179500580e-01  -9.979447722435e-02  -9.075592458248e-02  -1.627954840660e-01 
 -1.078555174172e-02  -1.180150508881e-01  -1.677273362875e-01   6.724547594786e-02  -2.096063345671e-01  -1.871923655272e-01   6.724547594786e-02  -2.096063345671e-01  -1.871923655272e-01 
  0.000000000000e+00  -8.430406160187e-05  -1.960827112198e-01   0.000000000000e+00  -8.430406160187e-05  -1.960827112198e-01  -1.838014274836e-02  -1.366557180882e-01  -2.069586366415e-01 
  1.966593861580e-01  -2.659078836441e-01  -2.131068259478e-01   7.342792302370e-02  -1.349905729294e-01  -2.003758996725e-01   4.510492458940e-02  -3.431316092610e-02  -1.435880362988e-01 
  5.497094243765e-03  -2.457822859287e-02  -1.432150602341e-01   1.190998591483e-03  -5.454799160361e-02  -1.393054276705e-01   8.180194348097e-02   2.021110244095e-02  -1.551062464714e-01 
  8.180194348097e-02   2.021110244095e-02  -1.551062464714e-01   0.000000000000e+00   4.596222192049e-02  -1.926893740892e-01   0.000000000000e+00   4.596222192049e-02  -1.926893740892e-01 
  4.215686768293e-02   2.694836817682e-02  -1.747078299522e-01   7.752804458141e-02  -2.907961793244e-02  -1.632338613272e-01   4.482449963689e-02  -1.255140304565e-01  -1.602449417114e-01 
  4.258591309190e-02  -1.618896871805e-01  -1.584341078997e-01   6.275527179241e-02  -6.805910915136e-02  -1.853972077370e-01   5.378460139036e-02  -5.207318067551e-02  -1.420453041792e-01 
  1.119583621621e-01   1.663681678474e-02  -1.372748911381e-01   1.119583621621e-01   1.663681678474e-02  -1.372748911381e-01   0.000000000000e+00  -2.118523791432e-02  -2.233386486769e-01 
  0.000000000000e+00  -2.118523791432e-02  -2.233386486769e-01  -5.197149515152e-02  -3.972183540463e-02  -2.193759083748e-01   1.090998053551e-01  -3.856153041124e-02  -1.773172616959e-01 
  2.711802534759e-02  -7.705731689930e-02  -1.496721506119e-01  -4.749545454979e-02  -9.952689707279e-02  -1.511001586914e-01   3.290927782655e-02  -4.051798954606e-02  -1.631731390953e-01 
  1.444671954960e-02  -4.378362372518e-02  -1.619032621384e-01   3.702416317537e-03  -1.362949609756e-01  -1.896660625935e-01   3.702416317537e-03  -1.362949609756e-01  -1.896660625935e-01 
  0.000000000000e+00   3.008310869336e-02  -1.886377036572e-01   0.000000000000e+00   3.008310869336e-02  -1.886377036572e-01  -8.068646304309e-03  -5.263167619705e-02  -1.986433863640e-01 
  1.182488501072e-01  -2.413942106068e-02  -1.819075345993e-01   2.635235525668e-02  -2.609094046056e-02  -1.918730437756e-01   1.060525327921e-01   5.986909940839e-02  -1.436557322741e-01 
  8.602714538574e-02  -3.705772757530e-02  -1.527703702450e-01  -6.129821017385e-02  -2.147778868675e-03  -1.431867182255e-01  -8.464763313532e-02   6.645371671766e-03  -1.506450772285e-01 
 -8.464763313532e-02   6.645371671766e-03  -1.506450772285e-01   0.000000000000e+00  -1.577893830836e-02  -1.994385421276e-01   0.000000000000e+00  -1.577893830836e-02  -1.994385421276e-01 
 -1.390253455611e-04  -6.443811208010e-02  -1.913838833570e-01   5.122221261263e-02   2.318489737809e-02  -1.662601679564e-01   8.368956297636e-02   2.375396341085e-02  -1.568618714809e-01 
  1.133576706052e-01   3.784728934988e-03  -1.730535179377e-01   9.722216427326e-02  -1.551620382816e-02  -1.872543543577e-01   5.016006901860e-02   1.351661607623e-02  -1.458054482937e-01 
  6.132071092725e-02  -3.160822018981e-02  -1.405753344297e-01   6.132071092725e-02  -3.160822018981e-02  -1.405753344297e-01   0.000000000000e+00   1.132325734943e-02  -2.186509966850e-01 
  0.000000000000e+00   1.132325734943e-02  -2.186509966850e-01  -1.665138266981e-02  -5.654284730554e-02  -2.344483733177e-01   1.356424540281e-01   4.875788837671e-02  -1.574749499559e-01 
  9.724599123001e-02   1.585338637233e-02  -1.392036974430e-01   1.199417933822e-01   5.104909092188e-02  -1.359306275845e-01   3.531548753381e-02   2.860622666776e-02  -1.567153036594e-01 
  3.177111968398e-02  -3.207507357001e-02  -1.631866246462e-01   1.888103634119e-01  -9.570215642452e-02  -1.958010494709e-01   1.888103634119e-01  -9.570215642452e-02  -1.958010494709e-01 
  0.000000000000e+00   0.000000000000e+00  -1.803015023470e-01   0.000000000000e+00   0.000000000000e+00  -1.803015023470e-01  -1.210519205779e-02   0.000000000000e+00  -1.746089458466e-01 
  1.561354286969e-02   0.000000000000e+00  -1.586492657661e-01  -1.296645030379e-02   0.000000000000e+00  -1.812125891447e-01   2.543812394142e-01   0.000000000000e+00  -1.255908012390e-01 
  1.579124331474e-01   0.000000000000e+00  -1.280622035265e-01   1.332388669252e-01   0.000000000000e+00  -1.269541829824e-01   2.983831465244e-01   0.000000000000e+00  -1.338701844215e-01 
  2.983831465244e-01   0.000000000000e+00  -1.338701844215e-01   0.000000000000e+00   0.000000000000e+00  -1.803015023470e-01   0.000000000000e+00   0.000000000000e+00  -1.803015023470e-01 
 -1.210519205779e-02   0.000000000000e+00  -1.746089458466e-01   1.561354286969e-02   0.000000000000e+00  -1.586492657661e-01  -1.296645030379e-02   0.000000000000e+00  -1.812125891447e-01 
  2.543812394142e-01   0.000000000000e+00  -1.255908012390e-01   1.579124331474e-01   0.000000000000e+00  -1.280622035265e-01   1.332388669252e-01   0.000000000000e+00  -1.269541829824e-01 
  2.983831465244e-01   0.000000000000e+00  -1.338701844215e-01   2.983831465244e-01   0.000000000000e+00  -1.338701844215e-01   0.000000000000e+00  -1.848500818014e-01  -8.194788694382e-01 
  0.000000000000e+00  -1.848500818014e-01  -8.194788694382e-01   4.152962267399e-01  -6.990896165371e-02  -4.152177572250e-01   5.233335494995e-01   1.030950879795e-04  -5.161439180374e-01 
  7.711009383202e-01   3.690652782097e-03  -3.387247323990e-01   1.483728140593e-01  -2.355200424790e-02  -6.682489514351e-01  -9.208915382624e-02  -5.696213990450e-02  -7.437925338745e-01 
 -3.681135922670e-02  -1.749608963728e-01  -7.387756705284e-01  -2.112936526537e-01   0.000000000000e+00  -6.993762403727e-02  -2.112936526537e-01   0.000000000000e+00  -6.993762403727e-02 
  0.000000000000e+00  -1.848500818014e-01  -8.194788694382e-01   0.000000000000e+00  -1.848500818014e-01  -8.194788694382e-01   4.152962267399e-01  -6.990896165371e-02  -4.152177572250e-01 
  5.233335494995e-01   1.030950879795e-04  -5.161439180374e-01   7.711009383202e-01   3.690652782097e-03  -3.387247323990e-01   1.483728140593e-01  -2.355200424790e-02  -6.682489514351e-01 
 -9.208915382624e-02  -5.696213990450e-02  -7.437925338745e-01  -3.681135922670e-02  -1.749608963728e-01  -7.387756705284e-01  -2.112936526537e-01   0.000000000000e+00  -6.993762403727e-02 
 -2.112936526537e-01   0.000000000000e+00  -6.993762403727e-02   0.000000000000e+00   4.964183643460e-02  -1.073002338409e+00   0.000000000000e+00   4.964183643460e-02  -1.073002338409e+00 
  2.224444895983e-01  -2.572051621974e-02  -1.068466305733e+00   2.716568410397e-01   1.450178399682e-02  -8.727930188179e-01   3.889572918415e-01  -6.024439260364e-02  -5.302755832672e-01 
  8.910989761353e-02  -4.138668254018e-02  -5.641195550561e-02  -9.143047034740e-02  -6.954063475132e-02  -7.642121911049e-01  -1.456493437290e-01  -3.586601316929e-01  -7.673331499100e-01 
 -6.990628242493e-01  -9.317401051521e-01  -1.696003377438e-01  -6.990628242493e-01  -9.317401051521e-01  -1.696003377438e-01   0.000000000000e+00   1.572805345058e-01  -1.309026122093e+00 
  0.000000000000e+00   1.572805345058e-01  -1.309026122093e+00   2.953703105450e-01   1.038620918989e-01  -9.449741244316e-01   3.715098202229e-01  -8.229328691959e-02  -8.427641391754e-01 
  8.265070319176e-01  -1.039036586881e-01  -7.496833205223e-01  -2.025500386953e-01  -1.357984840870e-01  -5.787113308907e-01  -4.791407287121e-01  -1.008039489388e-01  -3.111415803432e-01 
 -6.670477986336e-02  -2.768927216530e-01  -3.015294075012e-01   2.906213281676e-03  -7.265318036079e-01  -3.423070907593e-01   2.906213281676e-03  -7.265318036079e-01  -3.423070907593e-01 
  0.000000000000e+00   1.164909750223e-01  -9.843231439590e-01   0.000000000000e+00   1.164909750223e-01  -9.843231439590e-01   3.564768433571e-01   1.692565828562e-01  -7.871788740158e-01 
  3.689475655556e-01  -8.398694545031e-02  -8.237848281860e-01   5.117811560631e-01  -1.939841359854e-02  -7.882006764412e-01  -6.928219795227e-01  -4.447929933667e-02  -6.787117719650e-01 
 -1.021036744118e+00  -1.273665130138e-01  -2.528841793537e-01  -1.871941536665e-01  -1.296101659536e-01  -6.395328640938e-01  -2.151980847120e-01  -1.340667009354e-01  -3.153957724571e-01 
 -2.151980847120e-01  -1.340667009354e-01  -3.153957724571e-01   0.000000000000e+00   1.233030334115e-01  -9.270209670067e-01   0.000000000000e+00   1.233030334115e-01  -9.270209670067e-01 
  1.644250303507e-01  -1.852653920650e-01  -1.166870832443e+00   2.187062948942e-01  -3.139644488692e-02  -9.157151579857e-01   5.036586523056e-01   5.232855677605e-02  -5.152339339256e-01 
  1.478355005383e-02   7.931896299124e-02  -6.528489589691e-01  -3.981750607491e-01  -1.108131092042e-02  -7.782111167908e-01  -2.286360561848e-01   6.713349372149e-02  -4.111804664135e-01 
 -1.523876190186e-01   8.027265779674e-03  -6.814621090889e-01  -1.523876190186e-01   8.027265779674e-03  -6.814621090889e-01   0.000000000000e+00   1.260775029659e-01  -1.199619293213e+00 
  0.000000000000e+00   1.260775029659e-01  -1.199619293213e+00   1.713081300259e-01   2.965534105897e-02  -1.232941269875e+00   2.230677008629e-01   3.634179756045e-02  -1.002556324005e+00 
  4.809501469135e-01   1.373662520200e-02  -7.299312949181e-01  -4.636501967907e-01  -1.407990232110e-02  -1.032694697380e+00   1.521036326885e-01   5.868473649025e-01  -6.214051842690e-01 
  3.055907972157e-02   2.795426845551e-01  -4.445109069347e-01   3.898926451802e-02   4.251172393560e-02  -6.591195464134e-01   3.898926451802e-02   4.251172393560e-02  -6.591195464134e-01 
  0.000000000000e+00  -5.216490477324e-03  -1.061352372169e+00   0.000000000000e+00  -5.216490477324e-03  -1.061352372169e+00   6.986865401268e-02  -1.078901365399e-01  -1.210658788681e+00 
  1.775416433811e-01   1.247557550669e-01  -1.305601000786e+00  -3.824064433575e-01   2.968132495880e-02  -1.447546005249e+00   1.127855181694e-01   2.638814412057e-02  -1.424404025078e+00 
  9.370831400156e-02   7.402207702398e-02  -6.861576437950e-01   4.088258743286e-02   4.931510612369e-02  -4.206849634647e-01   1.640257686377e-01  -7.204639166594e-02  -8.068020343781e-01 
  1.640257686377e-01  -7.204639166594e-02  -8.068020343781e-01   0.000000000000e+00   0.000000000000e+00  -9.830211400986e-01   0.000000000000e+00   0.000000000000e+00  -9.830211400986e-01 
  1.507511287928e-01   0.000000000000e+00  -2.504163682461e-01   8.164823055267e-02   2.560952305794e-02  -1.016541242599e+00   7.697040438652e-01   0.000000000000e+00  -5.106447935104e-01 
  8.323876261711e-01   2.626073580814e-07  -5.284406542778e-01  -1.684335917234e-01   2.508390322328e-02  -1.884918808937e+00  -6.722401976585e-01   4.154916852713e-03  -7.304581254721e-02 
  2.941576242447e-01  -3.073076004512e-05  -9.594633579254e-01   2.941576242447e-01  -3.073076004512e-05  -9.594633579254e-01   0.000000000000e+00   0.000000000000e+00  -9.830211400986e-01 
  0.000000000000e+00   0.000000000000e+00  -9.830211400986e-01   1.507511287928e-01   0.000000000000e+00  -2.504163682461e-01   8.164823055267e-02   2.560952305794e-02  -1.016541242599e+00 
  7.697040438652e-01   0.000000000000e+00  -5.106447935104e-01   8.323876261711e-01   2.626073580814e-07  -5.284406542778e-01  -1.684335917234e-01   2.508390322328e-02  -1.884918808937e+00 
 -6.722401976585e-01   4.154916852713e-03  -7.304581254721e-02   2.941576242447e-01  -3.073076004512e-05  -9.594633579254e-01   2.941576242447e-01  -3.073076004512e-05  -9.594633579254e-01 
  0.000000000000e+00   4.788570106030e-02  -6.218987107277e-01   0.000000000000e+00   4.788570106030e-02  -6.218987107277e-01   3.330686986446e-01   3.872833400965e-02  -3.353123366833e-01 
  4.482517838478e-01   1.109544932842e-01  -5.923983454704e-01   6.752130985260e-01   6.470774859190e-02  -1.437208414078e+00   0.000000000000e+00   1.266405358911e-02  -1.000000014901e-01 
 -9.236167371273e-02  -1.104108244181e-01  -6.309641003609e-01  -1.068997532129e-01  -1.860734522343e-01  -5.058202147484e-01  -6.889216601849e-02   0.000000000000e+00  -1.571300029755e-01 
 -6.889216601849e-02   0.000000000000e+00  -1.571300029755e-01   0.000000000000e+00   4.788570106030e-02  -6.218987107277e-01   0.000000000000e+00   4.788570106030e-02  -6.218987107277e-01 
  3.330686986446e-01   3.872833400965e-02  -3.353123366833e-01   4.482517838478e-01   1.109544932842e-01  -5.923983454704e-01   6.752130985260e-01   6.470774859190e-02  -1.437208414078e+00 
  0.000000000000e+00   1.266405358911e-02  -1.000000014901e-01  -9.236167371273e-02  -1.104108244181e-01  -6.309641003609e-01  -1.068997532129e-01  -1.860734522343e-01  -5.058202147484e-01 
 -6.889216601849e-02   0.000000000000e+00  -1.571300029755e-01  -6.889216601849e-02   0.000000000000e+00  -1.571300029755e-01   0.000000000000e+00   1.270047724247e-01  -5.132249593735e-01 
  0.000000000000e+00   1.270047724247e-01  -5.132249593735e-01   2.703470289707e-01  -2.063449285924e-02  -2.367519140244e-01   2.098047882318e-01   4.116651415825e-02  -3.548873364925e-01 
  2.882277071476e-01   1.914209127426e-02  -4.249045252800e-01   1.541304290295e-01  -1.372664514929e-02  -1.086764484644e-01  -3.322730064392e-01  -1.267435401678e-01  -1.032673120499e-01 
 -3.119629621506e-01  -5.709360241890e-01  -4.437676668167e-01  -6.314862370491e-01  -8.641635179520e-01  -8.955340087414e-02  -6.314862370491e-01  -8.641635179520e-01  -8.955340087414e-02 
  0.000000000000e+00   1.324788630009e-01  -5.251461267471e-01   0.000000000000e+00   1.324788630009e-01  -5.251461267471e-01   2.195508629084e-01   2.096586115658e-02  -4.764838814735e-01 
  2.345396578312e-01  -2.430227398872e-02  -3.581108152866e-01   2.686477899551e-01  -3.847000002861e-02  -3.556596040726e-01   1.154757887125e-01  -8.124527335167e-02  -2.427760809660e-01 
 -6.725192070007e-01   0.000000000000e+00   1.046689271927e+00  -5.175463557243e-01  -3.393272757530e-01   9.783826023340e-02  -6.852766126394e-02  -8.641635179520e-01  -3.824939131737e-01 
 -6.852766126394e-02  -8.641635179520e-01  -3.824939131737e-01   0.000000000000e+00   3.547848388553e-02  -6.525552272797e-01   0.000000000000e+00   3.547848388553e-02  -6.525552272797e-01 
  2.672502100468e-01  -5.095141381025e-02  -4.077055156231e-01   3.033306598663e-01  -5.836600810289e-02  -2.100306749344e-01  -2.717024683952e-01   1.814951188862e-02  -1.567605584860e-01 
  2.126049548388e-01  -3.007943741977e-02  -2.905202209949e-01  -8.552981019020e-01  -6.420979648829e-02   5.159948468208e-01  -6.960617303848e-01  -6.854601204395e-02   2.067863196135e-01 
  0.000000000000e+00  -1.018668860197e-01  -1.644286990166e+00   0.000000000000e+00  -1.018668860197e-01  -1.644286990166e+00   0.000000000000e+00   3.093505464494e-02  -4.430561363697e-01 
  0.000000000000e+00   3.093505464494e-02  -4.430561363697e-01   1.899196356535e-01   2.370210923254e-02  -4.681745171547e-01   1.549227684736e-01   2.480247523636e-03  -4.584476351738e-01 
  5.874693393707e-01   3.635694086552e-02  -2.648440599442e-01   1.057866573334e+00   1.394248940051e-02  -5.016596317291e-01  -5.904211997986e-01  -4.054295271635e-02   9.275025874376e-02 
 -4.911555051804e-01  -8.491293527186e-03  -5.973238870502e-02  -2.141550183296e-01  -1.856041699648e-02  -6.776698827744e-01  -2.141550183296e-01  -1.856041699648e-02  -6.776698827744e-01 
  0.000000000000e+00   7.670744508505e-02  -5.059462189674e-01   0.000000000000e+00   7.670744508505e-02  -5.059462189674e-01   1.861185878515e-01   3.870620951056e-02  -3.567483127117e-01 
  2.930201888084e-01   4.316719993949e-02  -2.974633276463e-01  -3.507043719292e-01   6.302129477262e-02  -7.647628784180e-01  -6.904636025429e-01   5.404063686728e-02  -1.233872532845e+00 
  1.366149038076e-01   4.603531360626e-01  -8.950703740120e-01  -1.679277792573e-02   2.927890121937e-01  -5.709295272827e-01  -1.194481924176e-02   1.112127378583e-01  -6.393633484840e-01 
 -1.194481924176e-02   1.112127378583e-01  -6.393633484840e-01   0.000000000000e+00  -8.612344413996e-02  -6.258419156075e-01   0.000000000000e+00  -8.612344413996e-02  -6.258419156075e-01 
 -2.118262648582e-02  -6.270926096477e-04  -3.855045735836e-01   3.728248178959e-01   7.483349740505e-02  -7.640799283981e-01  -1.011305332184e+00   3.532646596432e-02  -4.584223330021e-01 
 -1.015189766884e+00   2.464664727449e-02  -9.317225813866e-01  -5.848776102066e-01   0.000000000000e+00  -8.574098348618e-01  -5.887131690979e-01   3.630417957902e-02  -6.714637279510e-01 
 -5.954939499497e-02  -3.741531446576e-02  -7.259244918823e-01  -5.954939499497e-02  -3.741531446576e-02  -7.259244918823e-01   0.000000000000e+00   0.000000000000e+00  -5.090276598930e-01 
  0.000000000000e+00   0.000000000000e+00  -5.090276598930e-01  -3.751423209906e-02   0.000000000000e+00  -4.472661018372e-01   2.021649479866e-01   0.000000000000e+00  -6.794160604477e-01 
 -3.273789584637e-01   0.000000000000e+00  -4.363611936569e-01  -3.801961615682e-02   1.659355177708e-07  -7.919863462448e-01  -9.485354423523e-01   0.000000000000e+00  -9.788051843643e-01 
 -9.510201811790e-01   1.139213098213e-03  -9.800475239754e-01   0.000000000000e+00   4.324999172240e-04  -1.000000014901e-01   0.000000000000e+00   4.324999172240e-04  -1.000000014901e-01 
  0.000000000000e+00   0.000000000000e+00  -5.090276598930e-01   0.000000000000e+00   0.000000000000e+00  -5.090276598930e-01  -3.751423209906e-02   0.000000000000e+00  -4.472661018372e-01 
  2.021649479866e-01   0.000000000000e+00  -6.794160604477e-01  -3.273789584637e-01   0.000000000000e+00  -4.363611936569e-01  -3.801961615682e-02   1.659355177708e-07  -7.919863462448e-01 
 -9.485354423523e-01   0.000000000000e+00  -9.788051843643e-01  -9.510201811790e-01   1.139213098213e-03  -9.800475239754e-01   0.000000000000e+00   4.324999172240e-04  -1.000000014901e-01 
  0.000000000000e+00   4.324999172240e-04  -1.000000014901e-01   0.000000000000e+00   4.171115159988e-02  -7.135447263718e-01   0.000000000000e+00   4.171115159988e-02  -7.135447263718e-01 
  1.186289917678e-02  -5.019373819232e-02  -4.393305480480e-01   2.382275164127e-01   3.362517431378e-02  -9.637945890427e-01   4.664199948311e-01   2.991931699216e-02  -1.774798512459e+00 
  2.302532196045e-01  -9.978270158172e-03  -1.096263900399e-01   0.000000000000e+00  -1.756685972214e-02  -1.522704660892e-01   0.000000000000e+00   0.000000000000e+00  -1.000000014901e-01 
 -2.523446455598e-02   3.870908915997e-02  -4.214413166046e-01  -2.523446455598e-02   3.870908915997e-02  -4.214413166046e-01   0.000000000000e+00   4.171115159988e-02  -7.135447263718e-01 
  0.000000000000e+00   4.171115159988e-02  -7.135447263718e-01   1.186289917678e-02  -5.019373819232e-02  -4.393305480480e-01   2.382275164127e-01   3.362517431378e-02  -9.637945890427e-01 
  4.664199948311e-01   2.991931699216e-02  -1.774798512459e+00   2.302532196045e-01  -9.978270158172e-03  -1.096263900399e-01   0.000000000000e+00  -1.756685972214e-02  -1.522704660892e-01 
  0.000000000000e+00   0.000000000000e+00  -1.000000014901e-01  -2.523446455598e-02   3.870908915997e-02  -4.214413166046e-01  -2.523446455598e-02   3.870908915997e-02  -4.214413166046e-01 
  0.000000000000e+00   1.528162807226e-01  -3.014113008976e-01   0.000000000000e+00   1.528162807226e-01  -3.014113008976e-01   1.239738091826e-01  -7.245267182589e-02  -4.409501701593e-02 
 -3.182109817863e-02  -1.564308069646e-02  -3.127049505711e-01   8.092170208693e-02  -5.554701201618e-03  -4.576864838600e-01   1.102678254247e-01  -4.169334471226e-02  -3.138954341412e-01 
 -3.017354309559e-01  -3.434147685766e-02   1.976082623005e-01  -1.807805895805e-01   0.000000000000e+00  -1.530732065439e-01  -7.587286829948e-02   6.052097678185e-02  -1.000000014901e-01 
 -7.587286829948e-02   6.052097678185e-02  -1.000000014901e-01   0.000000000000e+00   3.314569592476e-02  -3.511587679386e-01   0.000000000000e+00   3.314569592476e-02  -3.511587679386e-01 
  1.164917573333e-01   2.036382071674e-02  -3.438850939274e-01   1.063664257526e-01   8.787535130978e-03  -3.450184762478e-01   1.048146858811e-01  -2.273959666491e-01  -6.872652769089e-01 
  1.099566221237e-01  -2.006152868271e-01  -5.676347017288e-01  -2.761626243591e-01  -3.777845948935e-02   6.754208803177e-01  -2.791134417057e-01  -1.192776635289e-01   2.390286773443e-01 
 -5.377838015556e-02   0.000000000000e+00  -1.388178914785e-01  -5.377838015556e-02   0.000000000000e+00  -1.388178914785e-01   0.000000000000e+00   6.685763597488e-02  -5.679602622986e-01 
  0.000000000000e+00   6.685763597488e-02  -5.679602622986e-01   4.851765930653e-02  -2.695761322975e-01  -3.182346224785e-01   1.608345210552e-01  -2.906892001629e-01  -6.284494400024e-01 
  5.230855941772e-02  -4.214722216129e-01  -7.547050118446e-01   1.127886846662e-01  -2.576702535152e-01  -1.043618321419e+00   0.000000000000e+00  -7.047989219427e-02   2.570403814316e-01 
  0.000000000000e+00  -6.031465157866e-02   1.226286739111e-01   0.000000000000e+00  -6.908939778805e-02  -7.869448661804e-01   0.000000000000e+00  -6.908939778805e-02  -7.869448661804e-01 
  0.000000000000e+00   1.424425393343e-01  -5.903881192207e-01   0.000000000000e+00   1.424425393343e-01  -5.903881192207e-01   1.464674472809e-01   2.380718141794e-01  -3.801811635494e-01 
  1.077186688781e-01  -1.546446979046e-01  -8.561940789223e-01  -5.763489007950e-02  -2.008232325315e-01  -1.015041470528e+00   2.573005296290e-02  -1.675193309784e-01  -9.750977158546e-01 
 -2.075237631798e-01  -6.918721646070e-02   6.519509106874e-02  -2.771417498589e-01  -3.966381400824e-02   2.808885835111e-02  -1.844316273928e-01  -3.608876839280e-02  -4.772346615791e-01 