# vtk DataFile Version 2.0
Written using VisIt writer
ASCII
DATASET RECTILINEAR_GRID
DIMENSIONS 10 10 10
X_COORDINATES 10 float
  0.000000000000e+00   5.000000000000e-01   1.000000000000e+00   1.500000000000e+00   2.000000000000e+00   2.500000000000e+00   3.000000000000e+00   3.500000000000e+00   4.000000000000e+00 
  4.500000000000e+00 
Y_COORDINATES 10 float
  0.000000000000e+00   5.000000000000e-01   1.000000000000e+00   1.500000000000e+00   2.000000000000e+00   2.500000000000e+00   3.000000000000e+00   3.500000000000e+00   4.000000000000e+00 
  4.500000000000e+00 
Z_COORDINATES 10 float
  0.000000000000e+00   5.000000000000e-01   1.000000000000e+00   1.500000000000e+00   2.000000000000e+00   2.500000000000e+00   3.000000000000e+00   3.500000000000e+00   4.000000000000e+00 
  4.500000000000e+00 
CELL_DATA 729
POINT_DATA 1000
VECTORS velocity float
  0.000000000000e+00  -1.172409728169e-01  -2.056699246168e-01   3.251200000000e+04   0.000000000000e+00   0.000000000000e+00   0.000000000000e+00   0.000000000000e+00   0.000000000000e+00 
  1.417677402496e-01  -6.103382259607e-02  -1.473990380764e-01   0.000000000000e+00   0.000000000000e+00   0.000000000000e+00   0.000000000000e+00   1.431655808000e+09   1.070945600000e+09 
  1.292068660259e-01  -8.107418566942e-02  -1.599304825068e-01   1.071994176000e+09   0.000000000000e+00   0.000000000000e+00   0.000000000000e+00   0.000000000000e+00   0.000000000000e+00 
  1.011930331588e-01  -1.730514168739e-01  -1.910066604614e-01   0.000000000000e+00  -1.172409728169e-01  -2.056699246168e-01   1.070945600000e+09   0.000000000000e+00   0.000000000000e+00 
  6.755548715591e-02  -9.175525605679e-02  -1.848428547382e-01   1.417677402496e-01  -6.103382259607e-02  -1.473990380764e-01   1.431655808000e+09   1.070945600000e+09   0.000000000000e+00 
  1.505562961102e-01  -4.917408153415e-02  -1.327631771564e-01   1.292068660259e-01  -8.107418566942e-02  -1.599304825068e-01   0.000000000000e+00   0.000000000000e+00   1.071644672000e+09 
  1.011930331588e-01  -1.730514168739e-01  -1.910066604614e-01   1.011930331588e-01  -1.730514168739e-01  -1.910066604614e-01   0.000000000000e+00   1.793988421559e-02  -1.745864897966e-01 
  0.000000000000e+00   1.793988421559e-02  -1.745864897966e-01  -4.171662405133e-02  -2.497952878475e-01  -1.933632791042e-01   1.828706264496e-01  -3.017181456089e-01  -1.775631159544e-01 
  1.218917742372e-01  -1.094881370664e-01  -1.825960725546e-01   8.595600724220e-02  -7.242603600025e-02  -1.458425372839e-01   1.125049516559e-01   2.124485000968e-02  -1.374509632587e-01 
  7.172176241875e-02   2.658079843968e-03  -1.386756449938e-01   1.206577643752e-01  -4.281628131866e-02  -1.472535878420e-01   1.206577643752e-01  -4.281628131866e-02  -1.472535878420e-01 
  0.000000000000e+00   4.175511002541e-02  -1.577409207821e-01   0.000000000000e+00   4.175511002541e-02  -1.577409207821e-01   9.342211484909e-02  -3.285971283913e-02  -1.502434760332e-01 
  1.144322752953e-01   4.287748411298e-02  -1.385227888823e-01   5.196560919285e-02   3.330713883042e-02  -1.487569212914e-01   1.709631085396e-01  -6.522220373154e-02  -1.504391729832e-01 
  1.521923542023e-01  -1.364489085972e-02  -1.818607896566e-01   1.157457381487e-01  -2.496050298214e-02  -1.406531035900e-01   2.035407423973e-01  -2.064097672701e-02  -1.302718669176e-01 
  2.035407423973e-01  -2.064097672701e-02  -1.302718669176e-01   0.000000000000e+00   3.182087093592e-02  -1.827997416258e-01   0.000000000000e+00   3.182087093592e-02  -1.827997416258e-01 
 -2.854377031326e-02  -7.009305804968e-02  -1.935438364744e-01   1.606076359749e-01   1.567312888801e-02  -1.425498723984e-01   8.843077719212e-02  -9.080215357244e-03  -1.463168710470e-01 
  1.362940669060e-01  -1.149267144501e-02  -1.358341276646e-01   9.098330140114e-02   9.757355786860e-03  -1.521944105625e-01   1.167856976390e-01  -4.588264226913e-02  -1.544854491949e-01 
  1.918627619743e-01  -5.595323443413e-02  -1.769663095474e-01   1.918627619743e-01  -5.595323443413e-02  -1.769663095474e-01   0.000000000000e+00  -3.587088733912e-02  -1.636096388102e-01 
  0.000000000000e+00  -3.587088733912e-02  -1.636096388102e-01   1.419406011701e-02  -2.233391394839e-03  -1.595578491688e-01   1.336568444967e-01  -4.539662972093e-02  -1.569435447454e-01 
  4.367044568062e-02  -1.339324265718e-01  -2.010885328054e-01   1.119340956211e-01  -1.442197114229e-01  -1.535253077745e-01   8.720153570175e-02  -4.280142113566e-02  -1.412611007690e-01 
  7.073811441660e-02   1.629314012825e-02  -1.342941224575e-01   1.828472465277e-01   8.526961505413e-02  -1.393315643072e-01   1.828472465277e-01   8.526961505413e-02  -1.393315643072e-01 
  0.000000000000e+00  -2.930850908160e-02  -1.702088415623e-01   0.000000000000e+00  -2.930850908160e-02  -1.702088415623e-01   5.344161391258e-02  -2.169224061072e-02  -1.575289815664e-01 
  8.599225431681e-02   3.126788511872e-02  -1.383357346058e-01   4.107923433185e-02   1.301422268152e-01  -1.539061367512e-01   9.449999034405e-02  -4.101161286235e-02  -1.662605851889e-01 
  1.341095417738e-01  -9.156954288483e-02  -1.803054511547e-01   1.028348505497e-01  -7.899023592472e-02  -1.438399702311e-01   1.731566935778e-01  -2.526929229498e-02  -1.376481354237e-01 
  1.731566935778e-01  -2.526929229498e-02  -1.376481354237e-01   0.000000000000e+00  -1.241057142615e-01  -2.130724340677e-01   0.000000000000e+00  -1.241057142615e-01  -2.130724340677e-01 
 -5.863981693983e-02  -6.624976545572e-02  -2.277669757605e-01   1.330713331699e-01   3.427091520280e-03  -1.542476862669e-01   3.849466517568e-02   6.634134799242e-02  -1.686698496342e-01 
  1.084752231836e-01   4.889198020101e-02  -1.364348828793e-01   1.300890296698e-01   1.766610192135e-03  -1.438098549843e-01   1.425990164280e-01  -7.945523411036e-02  -1.580889672041e-01 
  2.460475862026e-01  -1.247489973903e-01  -1.917229592800e-01   2.460475862026e-01  -1.247489973903e-01  -1.917229592800e-01   0.000000000000e+00   0.000000000000e+00  -1.862888634205e-01 
  0.000000000000e+00   0.000000000000e+00  -1.862888634205e-01  -1.036736741662e-01   0.000000000000e+00  -2.128203511238e-01   1.233225762844e-01   0.000000000000e+00  -2.013871520758e-01 
 -2.059675008059e-02   0.000000000000e+00  -2.362905740738e-01   2.221338599920e-01   0.000000000000e+00  -1.380435228348e-01   2.032929658890e-01   0.000000000000e+00  -1.206522136927e-01 
  1.710720360279e-01   0.000000000000e+00  -1.235857978463e-01   2.772759795189e-01   0.000000000000e+00  -1.253674626350e-01   2.772759795189e-01   0.000000000000e+00  -1.253674626350e-01 
  0.000000000000e+00   0.000000000000e+00  -1.862888634205e-01   0.000000000000e+00   0.000000000000e+00  -1.862888634205e-01  -1.036736741662e-01   0.000000000000e+00  -2.128203511238e-01 
  1.233225762844e-01   0.000000000000e+00  -2.013871520758e-01  -2.059675008059e-02   0.000000000000e+00  -2.362905740738e-01   2.221338599920e-01   0.000000000000e+00  -1.380435228348e-01 
  2.032929658890e-01   0.000000000000e+00  -1.206522136927e-01   1.710720360279e-01   0.000000000000e+00  -1.235857978463e-01   2.772759795189e-01   0.000000000000e+00  -1.253674626350e-01 
  2.772759795189e-01   0.000000000000e+00  -1.253674626350e-01   0.000000000000e+00  -1.172409728169e-01  -2.056699246168e-01   0.000000000000e+00  -1.172409728169e-01  -2.056699246168e-01 
  6.755548715591e-02  -9.175525605679e-02  -1.848428547382e-01   1.417677402496e-01  -6.103382259607e-02  -1.473990380764e-01   1.451087146997e-01  -4.592682793736e-02  -1.382839530706e-01 
  1.505562961102e-01  -4.917408153415e-02  -1.327631771564e-01   1.292068660259e-01  -8.107418566942e-02  -1.599304825068e-01   1.251097768545e-01  -9.050333499908e-02  -1.755486875772e-01 
  1.011930331588e-01  -1.730514168739e-01  -1.910066604614e-01   1.011930331588e-01  -1.730514168739e-01  -1.910066604614e-01   0.000000000000e+00  -1.172409728169e-01  -2.056699246168e-01 
  0.000000000000e+00  -1.172409728169e-01  -2.056699246168e-01   6.755548715591e-02  -9.175525605679e-02  -1.848428547382e-01   1.417677402496e-01  -6.103382259607e-02  -1.473990380764e-01 
  1.451087146997e-01  -4.592682793736e-02  -1.382839530706e-01   1.505562961102e-01  -4.917408153415e-02  -1.327631771564e-01   1.292068660259e-01  -8.107418566942e-02  -1.599304825068e-01 
  1.251097768545e-01  -9.050333499908e-02  -1.755486875772e-01   1.011930331588e-01  -1.730514168739e-01  -1.910066604614e-01   1.011930331588e-01  -1.730514168739e-01  -1.910066604614e-01 
  0.000000000000e+00   1.793988421559e-02  -1.745864897966e-01   0.000000000000e+00   1.793988421559e-02  -1.745864897966e-01  -4.171662405133e-02  -2.497952878475e-01  -1.933632791042e-01 
  1.828706264496e-01  -3.017181456089e-01  -1.775631159544e-01   1.218917742372e-01  -1.094881370664e-01  -1.825960725546e-01   8.595600724220e-02  -7.242603600025e-02  -1.458425372839e-01 
  1.125049516559e-01   2.124485000968e-02  -1.374509632587e-01   7.172176241875e-02   2.658079843968e-03  -1.386756449938e-01   1.206577643752e-01  -4.281628131866e-02  -1.472535878420e-01 
  1.206577643752e-01  -4.281628131866e-02  -1.472535878420e-01   0.000000000000e+00   4.175511002541e-02  -1.577409207821e-01   0.000000000000e+00   4.175511002541e-02  -1.577409207821e-01 
  9.342211484909e-02  -3.285971283913e-02  -1.502434760332e-01   1.144322752953e-01   4.287748411298e-02  -1.385227888823e-01   5.196560919285e-02   3.330713883042e-02  -1.487569212914e-01 
  1.709631085396e-01  -6.522220373154e-02  -1.504391729832e-01   1.521923542023e-01  -1.364489085972e-02  -1.818607896566e-01   1.157457381487e-01  -2.496050298214e-02  -1.406531035900e-01 
  2.035407423973e-01  -2.064097672701e-02  -1.302718669176e-01   2.035407423973e-01  -2.064097672701e-02  -1.302718669176e-01   0.000000000000e+00   3.182087093592e-02  -1.827997416258e-01 
  0.000000000000e+00   3.182087093592e-02  -1.827997416258e-01  -2.854377031326e-02  -7.009305804968e-02  -1.935438364744e-01   1.606076359749e-01   1.567312888801e-02  -1.425498723984e-01 
  8.843077719212e-02  -9.080215357244e-03  -1.463168710470e-01   1.362940669060e-01  -1.149267144501e-02  -1.358341276646e-01   9.098330140114e-02   9.757355786860e-03  -1.521944105625e-01 
  1.167856976390e-01  -4.588264226913e-02  -1.544854491949e-01   1.918627619743e-01  -5.595323443413e-02  -1.769663095474e-01   1.918627619743e-01  -5.595323443413e-02  -1.769663095474e-01 
  0.000000000000e+00  -3.587088733912e-02  -1.636096388102e-01   0.000000000000e+00  -3.587088733912e-02  -1.636096388102e-01   1.419406011701e-02  -2.233391394839e-03  -1.595578491688e-01 
  1.336568444967e-01  -4.539662972093e-02  -1.569435447454e-01   4.367044568062e-02  -1.339324265718e-01  -2.010885328054e-01   1.119340956211e-01  -1.442197114229e-01  -1.535253077745e-01 
  8.720153570175e-02  -4.280142113566e-02  -1.412611007690e-01   7.073811441660e-02   1.629314012825e-02  -1.342941224575e-01   1.828472465277e-01   8.526961505413e-02  -1.393315643072e-01 
  1.828472465277e-01   8.526961505413e-02  -1.393315643072e-01   0.000000000000e+00  -2.930850908160e-02  -1.702088415623e-01   0.000000000000e+00  -2.930850908160e-02  -1.702088415623e-01 
  5.344161391258e-02  -2.169224061072e-02  -1.575289815664e-01   8.599225431681e-02   3.126788511872e-02  -1.383357346058e-01   4.107923433185e-02   1.301422268152e-01  -1.539061367512e-01 
  9.449999034405e-02  -4.101161286235e-02  -1.662605851889e-01   1.341095417738e-01  -9.156954288483e-02  -1.803054511547e-01   1.028348505497e-01  -7.899023592472e-02  -1.438399702311e-01 
  1.731566935778e-01  -2.526929229498e-02  -1.376481354237e-01   1.731566935778e-01  -2.526929229498e-02  -1.376481354237e-01   0.000000000000e+00  -1.241057142615e-01  -2.130724340677e-01 
  0.000000000000e+00  -1.241057142615e-01  -2.130724340677e-01  -5.863981693983e-02  -6.624976545572e-02  -2.277669757605e-01   1.330713331699e-01   3.427091520280e-03  -1.542476862669e-01 
  3.849466517568e-02   6.634134799242e-02  -1.686698496342e-01   1.084752231836e-01   4.889198020101e-02  -1.364348828793e-01   1.300890296698e-01   1.766610192135e-03  -1.438098549843e-01 
  1.425990164280e-01  -7.945523411036e-02  -1.580889672041e-01   2.460475862026e-01  -1.247489973903e-01  -1.917229592800e-01   2.460475862026e-01  -1.247489973903e-01  -1.917229592800e-01 
  0.000000000000e+00   0.000000000000e+00  -1.862888634205e-01   0.000000000000e+00   0.000000000000e+00  -1.862888634205e-01  -1.036736741662e-01   0.000000000000e+00  -2.128203511238e-01 
  1.233225762844e-01   0.000000000000e+00  -2.013871520758e-01  -2.059675008059e-02   0.000000000000e+00  -2.362905740738e-01   2.221338599920e-01   0.000000000000e+00  -1.380435228348e-01 
  2.032929658890e-01   0.000000000000e+00  -1.206522136927e-01   1.710720360279e-01   0.000000000000e+00  -1.235857978463e-01   2.772759795189e-01   0.000000000000e+00  -1.253674626350e-01 
  2.772759795189e-01   0.000000000000e+00  -1.253674626350e-01   0.000000000000e+00   0.000000000000e+00  -1.862888634205e-01   0.000000000000e+00   0.000000000000e+00  -1.862888634205e-01 
 -1.036736741662e-01   0.000000000000e+00  -2.128203511238e-01   1.233225762844e-01   0.000000000000e+00  -2.013871520758e-01  -2.059675008059e-02   0.000000000000e+00  -2.362905740738e-01 
  2.221338599920e-01   0.000000000000e+00  -1.380435228348e-01   2.032929658890e-01   0.000000000000e+00  -1.206522136927e-01   1.710720360279e-01   0.000000000000e+00  -1.235857978463e-01 
  2.772759795189e-01   0.000000000000e+00  -1.253674626350e-01   2.772759795189e-01   0.000000000000e+00  -1.253674626350e-01   0.000000000000e+00  -3.100203871727e-01  -1.006677865982e+00 
  0.000000000000e+00  -3.100203871727e-01  -1.006677865982e+00   2.552055418491e-01  -1.104211881757e-01  -1.014578700066e+00   2.754478752613e-01  -2.235007435083e-01  -4.260547459126e-01 
  3.445416092873e-01  -1.263393759727e-01  -6.754579544067e-01   2.161314487457e-01  -1.510849595070e-02  -8.130308985710e-01   2.568036615849e-01  -1.651838049293e-02  -4.006952047348e-02 
  7.033947110176e-01  -4.919688403606e-02  -8.101531267166e-01   7.601549029350e-01  -5.539848282933e-02  -7.663150429726e-01   7.601549029350e-01  -5.539848282933e-02  -7.663150429726e-01 
  0.000000000000e+00  -3.100203871727e-01  -1.006677865982e+00   0.000000000000e+00  -3.100203871727e-01  -1.006677865982e+00   2.552055418491e-01  -1.104211881757e-01  -1.014578700066e+00 
  2.754478752613e-01  -2.235007435083e-01  -4.260547459126e-01   3.445416092873e-01  -1.263393759727e-01  -6.754579544067e-01   2.161314487457e-01  -1.510849595070e-02  -8.130308985710e-01 
  2.568036615849e-01  -1.651838049293e-02  -4.006952047348e-02   7.033947110176e-01  -4.919688403606e-02  -8.101531267166e-01   7.601549029350e-01  -5.539848282933e-02  -7.663150429726e-01 
  7.601549029350e-01  -5.539848282933e-02  -7.663150429726e-01   0.000000000000e+00  -1.734826862812e-01  -7.803690433502e-01   0.000000000000e+00  -1.734826862812e-01  -7.803690433502e-01 
 -9.484215825796e-02  -1.914138048887e-01  -7.943348288536e-01   5.684304833412e-01  -2.658902704716e-01  -6.148522496223e-01   6.223392486572e-01  -1.869949996471e-01  -5.965370535851e-01 
  4.137330651283e-01  -2.707831561565e-02  -6.035569310188e-01   4.423594176769e-01   1.122544799000e-02  -1.427740812302e+00   3.083250522614e-01   7.563317660242e-03  -8.186460137367e-01 
  3.462980389595e-01  -2.925059013069e-02  -8.100681304932e-01   3.462980389595e-01  -2.925059013069e-02  -8.100681304932e-01   0.000000000000e+00   4.519780725241e-02  -8.968204259872e-01 
  0.000000000000e+00   4.519780725241e-02  -8.968204259872e-01   3.714600503445e-01   2.938943803310e-01  -8.977336883545e-01   6.164864897728e-01  -3.795317932963e-02  -8.981590867043e-01 
  6.958035230637e-01   7.024106383324e-02  -9.280915260315e-01   9.663911461830e-01   2.134468555450e-01  -1.435411691666e+00   1.033921837807e+00   7.484401017427e-02  -1.383330941200e+00 
  3.197848796844e-01  -1.773290894926e-02  -5.934689566493e-02   2.266357988119e-01  -2.067983336747e-02  -6.972812861204e-02   2.266357988119e-01  -2.067983336747e-02  -6.972812861204e-02 
  0.000000000000e+00   4.243002913427e-04  -8.259811401367e-01   0.000000000000e+00   4.243002913427e-04  -8.259811401367e-01   1.121800541878e-01  -3.476002439857e-02  -1.051240682602e+00 
  2.218212634325e-01   2.177387475967e-01  -1.132935166359e+00   2.193516045809e-01  -6.920318305492e-02  -8.363363742828e-01   3.257285058498e-01   2.717976570129e-01  -6.631259322166e-01 
  1.643328666687e-01   1.073468029499e-01  -7.830214500427e-01   1.204040348530e-01  -2.419947646558e-02  -8.102611899376e-01   1.918869316578e-01  -5.494847893715e-02  -2.303369529545e-02 
  1.918869316578e-01  -5.494847893715e-02  -2.303369529545e-02   0.000000000000e+00   6.497573107481e-02  -6.704819202423e-01   0.000000000000e+00   6.497573107481e-02  -6.704819202423e-01 
 -1.679019927979e-01   4.687890410423e-02  -3.274366855621e-01  -2.563137412071e-01   1.451034992933e-01   1.483400613070e-01  -6.386488093995e-04   3.145511746407e-01  -4.961549639702e-01 
  1.334499865770e-01   8.516573905945e-02  -4.830655753613e-01   1.364339143038e-02  -8.219092153013e-03  -8.575313091278e-01   1.208223626018e-01   1.259091310203e-02  -8.318127989769e-01 
  2.130025327206e-01   8.369996398687e-02  -6.066843867302e-02   2.130025327206e-01   8.369996398687e-02  -6.066843867302e-02   0.000000000000e+00  -1.392675936222e-01  -7.639191150665e-01 
  0.000000000000e+00  -1.392675936222e-01  -7.639191150665e-01   3.484273329377e-02   3.748141229153e-01  -6.904392242432e-01   5.048391222954e-01   3.598923087120e-01  -8.023821711540e-01 
  6.155680418015e-01   2.687700688839e-01  -6.029614806175e-01   1.738253384829e-01   3.750948607922e-01  -7.812933921814e-01  -2.293549478054e-01   8.660039305687e-02  -7.645642757416e-01 
  3.444018661976e-01  -6.309793889523e-02  -8.958436250687e-01   4.215252995491e-01  -3.201555088162e-02  -6.235185638070e-02   4.215252995491e-01  -3.201555088162e-02  -6.235185638070e-02 
  0.000000000000e+00   1.833135634661e-01  -6.878775954247e-01   0.000000000000e+00   1.833135634661e-01  -6.878775954247e-01   2.307251840830e-01   1.498979479074e-01  -8.817332983017e-01 
  6.915402412415e-01  -3.177907690406e-02  -8.900656700134e-01   7.326847910881e-01  -6.215151026845e-02  -2.349261999130e+00  -5.089408159256e-01   1.491509974003e-01  -6.649563312531e-01 
 -4.591533914208e-02  -7.332659792155e-03  -6.854333281517e-01   8.275358676910e-01  -2.553120069206e-02  -5.999895930290e-01   8.947320580482e-01  -7.502829283476e-02  -7.548061013222e-01 
  8.947320580482e-01  -7.502829283476e-02  -7.548061013222e-01   0.000000000000e+00   0.000000000000e+00  -5.796900391579e-01   0.000000000000e+00   0.000000000000e+00  -5.796900391579e-01 
  4.711135327816e-01   0.000000000000e+00  -7.925173640251e-01   3.322168588638e-01   0.000000000000e+00  -1.488876819611e+00   1.481936872005e-01   0.000000000000e+00  -2.149585723877e+00 
 -1.065150260925e+00   1.320913620293e-02   5.147849321365e-01   1.742272675037e-01   0.000000000000e+00  -7.934778928757e-02   8.995584249496e-01   0.000000000000e+00  -8.516070842743e-01 
  9.979908466339e-01   0.000000000000e+00  -1.127907514572e+00   9.979908466339e-01   0.000000000000e+00  -1.127907514572e+00   0.000000000000e+00   0.000000000000e+00  -5.796900391579e-01 
  0.000000000000e+00   0.000000000000e+00  -5.796900391579e-01   4.711135327816e-01   0.000000000000e+00  -7.925173640251e-01   3.322168588638e-01   0.000000000000e+00  -1.488876819611e+00 
  1.481936872005e-01   0.000000000000e+00  -2.149585723877e+00  -1.065150260925e+00   1.320913620293e-02   5.147849321365e-01   1.742272675037e-01   0.000000000000e+00  -7.934778928757e-02 
  8.995584249496e-01   0.000000000000e+00  -8.516070842743e-01   9.979908466339e-01   0.000000000000e+00  -1.127907514572e+00   9.979908466339e-01   0.000000000000e+00  -1.127907514572e+00 
  0.000000000000e+00  -1.318251490593e-01  -8.451407551765e-01   0.000000000000e+00  -1.318251490593e-01  -8.451407551765e-01   1.240206584334e-01   5.239133257419e-03  -4.621578752995e-01 
  1.666881330311e-02  -1.805974096060e-01  -4.107872843742e-01   0.000000000000e+00  -1.717751622200e-01  -4.525900185108e-01   0.000000000000e+00  -1.272556632757e-01  -7.163091897964e-01 
  9.172178804874e-03  -7.764202076942e-03  -1.000000014901e-01   0.000000000000e+00   0.000000000000e+00  -8.289415836334e-01   0.000000000000e+00  -3.582287207246e-02  -8.573216795921e-01 
  0.000000000000e+00  -3.582287207246e-02  -8.573216795921e-01   0.000000000000e+00  -1.318251490593e-01  -8.451407551765e-01   0.000000000000e+00  -1.318251490593e-01  -8.451407551765e-01 
  1.240206584334e-01   5.239133257419e-03  -4.621578752995e-01   1.666881330311e-02  -1.805974096060e-01  -4.107872843742e-01   0.000000000000e+00  -1.717751622200e-01  -4.525900185108e-01 
  0.000000000000e+00  -1.272556632757e-01  -7.163091897964e-01   9.172178804874e-03  -7.764202076942e-03  -1.000000014901e-01   0.000000000000e+00   0.000000000000e+00  -8.289415836334e-01 
  0.000000000000e+00  -3.582287207246e-02  -8.573216795921e-01   0.000000000000e+00  -3.582287207246e-02  -8.573216795921e-01   0.000000000000e+00   3.861222788692e-02  -5.902475714684e-01 
  0.000000000000e+00   3.861222788692e-02  -5.902475714684e-01   1.005707234144e-01   9.727986901999e-02  -2.896105349064e-01   2.954971492290e-01  -2.052948325872e-01  -4.237973988056e-01 
  3.597825169563e-01  -1.957770138979e-01  -4.796644151211e-01   5.200572609901e-01  -1.206370964646e-01  -9.371660351753e-01   7.858933210373e-01  -1.358067733236e-03  -1.364503741264e+00 
  6.175152063370e-01   0.000000000000e+00  -8.573216795921e-01   3.056977987289e-01  -2.273317798972e-02  -8.276840448380e-01   3.056977987289e-01  -2.273317798972e-02  -8.276840448380e-01 
  0.000000000000e+00   1.442605108023e-01  -4.005460143089e-01   0.000000000000e+00   1.442605108023e-01  -4.005460143089e-01   2.939290702343e-01  -4.574629664421e-02  -3.354550153017e-02 
  6.148948073387e-01  -6.830899417400e-02  -9.387348592281e-02   5.697347521782e-01   2.021472342312e-02  -6.129128336906e-01   6.797744035721e-01   1.956626623869e-01  -1.431426405907e+00 
  8.848139643669e-01   1.121926009655e-01  -1.465191841125e+00   6.915107369423e-01   7.552064955235e-02  -6.330239176750e-01   3.230344057083e-01  -1.320220250636e-02  -1.980627924204e-01 
  3.230344057083e-01  -1.320220250636e-02  -1.980627924204e-01   0.000000000000e+00   2.633880078793e-02  -5.392034053802e-01   0.000000000000e+00   2.633880078793e-02  -5.392034053802e-01 
  6.273274868727e-02  -1.534512042999e-01  -5.188728868961e-02   8.311048150063e-01  -1.706676185131e-01   3.566404283047e-01   4.736907780170e-01   1.207295656204e-01  -2.112632840872e-01 
  3.087767958641e-01   2.038099467754e-01  -5.592926740646e-01   4.436249136925e-01   8.578358590603e-02  -8.847767114639e-01   6.007931232452e-01   7.941546291113e-02  -8.248569965363e-01 
  2.083332985640e-01  -3.965295106173e-02  -6.250140070915e-02   2.083332985640e-01  -3.965295106173e-02  -6.250140070915e-02   0.000000000000e+00   8.782296627760e-02  -3.848460912704e-01 
  0.000000000000e+00   8.782296627760e-02  -3.848460912704e-01   1.076216399670e-01   2.158223986626e-01  -3.596263825893e-01   1.707479506731e-01  -1.884720325470e-01   1.573962271214e-01 
  1.545438617468e-01   1.803316473961e-01   5.611039325595e-02   2.230097055435e-01   1.536134183407e-01  -4.942340031266e-02   7.245218008757e-02   1.131366342306e-01  -6.094225645065e-01 
  1.845539063215e-01   2.541977167130e-02  -8.098082542419e-01   2.720425128937e-01   7.744958251715e-02  -1.250697821379e-01   2.720425128937e-01   7.744958251715e-02  -1.250697821379e-01 
  0.000000000000e+00  -2.110450565815e-01  -3.807236254215e-01   0.000000000000e+00  -2.110450565815e-01  -3.807236254215e-01   1.704010069370e-01  -6.546702235937e-02  -5.624930262566e-01 
  2.262766659260e-01   2.627677321434e-01  -5.167955756187e-01   4.663271009922e-01   1.475415229797e-01   3.310872316360e-01   3.806760013103e-01   2.118603289127e-01   3.620350658894e-01 
  0.000000000000e+00   1.151685565710e-01  -7.278928756714e-01   4.050604999065e-01  -3.536660224199e-02  -8.113514780998e-01   5.379377603531e-01  -3.426805511117e-02  -3.280316889286e-01 
  5.379377603531e-01  -3.426805511117e-02  -3.280316889286e-01   0.000000000000e+00   1.447759419680e-01  -3.961584866047e-01   0.000000000000e+00   1.447759419680e-01  -3.961584866047e-01 
  2.590796351433e-01   8.886529505253e-02  -4.104376733303e-01   4.234690666199e-01   6.924270186573e-03  -1.263509631157e+00   5.772631168365e-01  -5.155022721738e-03  -1.147071242332e+00 
 -2.426563799381e-01   7.657331228256e-02  -6.352357864380e-01  -1.291725784540e-01   1.108605065383e-04  -6.957663297653e-01   8.425350785255e-01  -2.702305465937e-02  -7.069056630135e-01 
  8.752949237823e-01  -4.810565710068e-02  -7.343231439590e-01   8.752949237823e-01  -4.810565710068e-02  -7.343231439590e-01   0.000000000000e+00   0.000000000000e+00  -1.723994761705e-01 
  0.000000000000e+00   0.000000000000e+00  -1.723994761705e-01   2.597850263119e-01   0.000000000000e+00  -1.314193457365e-01   6.712044775486e-02   0.000000000000e+00  -8.302949070930e-01 
 -7.889320850372e-01   0.000000000000e+00  -1.116901159286e+00  -8.088048696518e-01   5.876849871129e-03  -7.195383310318e-01  -3.218432366848e-01   1.844573489507e-06  -4.613912999630e-01 
  9.251469373703e-01   0.000000000000e+00  -9.655125141144e-01   9.708669781685e-01   0.000000000000e+00  -1.058464765549e+00   9.708669781685e-01   0.000000000000e+00  -1.058464765549e+00 
  0.000000000000e+00   0.000000000000e+00  -1.723994761705e-01   0.000000000000e+00   0.000000000000e+00  -1.723994761705e-01   2.597850263119e-01   0.000000000000e+00  -1.314193457365e-01 
  6.712044775486e-02   0.000000000000e+00  -8.302949070930e-01  -7.889320850372e-01   0.000000000000e+00  -1.116901159286e+00  -8.088048696518e-01   5.876849871129e-03  -7.195383310318e-01 
 -3.218432366848e-01   1.844573489507e-06  -4.613912999630e-01   9.251469373703e-01   0.000000000000e+00  -9.655125141144e-01   9.708669781685e-01   0.000000000000e+00  -1.058464765549e+00 
  9.708669781685e-01   0.000000000000e+00  -1.058464765549e+00   0.000000000000e+00   1.328524500132e-01  -6.307233572006e-01   0.000000000000e+00   1.328524500132e-01  -6.307233572006e-01 
  9.287118166685e-02   3.534044325352e-02  -4.391261041164e-01  -1.485680788755e-01  -1.707430779934e-01  -3.706908226013e-01   9.532476067543e-01  -1.328679174185e-01  -3.822915554047e-01 
  8.802811503410e-01  -1.693511307240e-01  -4.187747538090e-01   0.000000000000e+00  -7.493771612644e-02  -3.677314817905e-01   2.583620548248e-01  -3.472040640190e-03  -1.000000014901e-01 
  1.127491667867e-01  -2.194365859032e-02  -1.000000014901e-01   1.127491667867e-01  -2.194365859032e-02  -1.000000014901e-01   0.000000000000e+00   1.328524500132e-01  -6.307233572006e-01 
  0.000000000000e+00   1.328524500132e-01  -6.307233572006e-01   9.287118166685e-02   3.534044325352e-02  -4.391261041164e-01  -1.485680788755e-01  -1.707430779934e-01  -3.706908226013e-01 
  9.532476067543e-01  -1.328679174185e-01  -3.822915554047e-01   8.802811503410e-01  -1.693511307240e-01  -4.187747538090e-01   0.000000000000e+00  -7.493771612644e-02  -3.677314817905e-01 
  2.583620548248e-01  -3.472040640190e-03  -1.000000014901e-01   1.127491667867e-01  -2.194365859032e-02  -1.000000014901e-01   1.127491667867e-01  -2.194365859032e-02  -1.000000014901e-01 
  0.000000000000e+00   2.416566610336e-01  -5.816106796265e-01   0.000000000000e+00   2.416566610336e-01  -5.816106796265e-01   6.277135759592e-02   1.837425082922e-01  -1.536316722631e-01 
 -4.465405642986e-02  -2.040351778269e-01  -1.780613511801e-01   0.000000000000e+00  -2.058343440294e-01  -3.602337241173e-01   0.000000000000e+00  -1.693511307240e-01  -3.737315237522e-01 
  6.915107369423e-01   0.000000000000e+00  -6.533329486847e-01   6.915107369423e-01   1.414298079908e-02  -6.964564323425e-01   3.703572750092e-01  -5.627181846648e-03  -6.817805171013e-01 
  3.703572750092e-01  -5.627181846648e-03  -6.817805171013e-01   0.000000000000e+00   3.970322608948e-01  -3.664960712194e-02   0.000000000000e+00   3.970322608948e-01  -3.664960712194e-02 
  2.557424083352e-02   1.268451213837e-01   1.887139976025e-01   3.153977096081e-01   1.786965131760e-02   1.279153972864e-01   4.611963331699e-01  -1.312627643347e-01  -2.496201694012e-01 
  0.000000000000e+00   1.130314022303e-01  -1.000000014901e-01   7.440811991692e-01   1.263142079115e-01  -6.007625460625e-01   6.389402747154e-01   7.374376058578e-02  -6.533329486847e-01 
  0.000000000000e+00   5.026905983686e-02  -1.000000014901e-01   0.000000000000e+00   5.026905983686e-02  -1.000000014901e-01   0.000000000000e+00  -2.231273651123e-01  -1.281731277704e-01 
  0.000000000000e+00  -2.231273651123e-01  -1.281731277704e-01   6.503774225712e-02  -1.613320559263e-01   7.928033918142e-02   4.209849834442e-01  -8.589819073677e-02   3.866945207119e-01 
  3.883527815342e-01   1.198162436485e-01   3.148099780083e-02   3.393748104572e-01   8.689800649881e-02  -2.159530967474e-01   7.104014754295e-01   2.117331698537e-02  -3.937100172043e-01 
  6.681305766106e-01   7.374376058578e-02  -4.776237308979e-01   3.620141446590e-01   4.867593199015e-02  -2.257446199656e-01   3.620141446590e-01   4.867593199015e-02  -2.257446199656e-01 
  0.000000000000e+00   2.551172971725e-01  -3.976891040802e-01   0.000000000000e+00   2.551172971725e-01  -3.976891040802e-01   6.865487992764e-02   7.462384700775e-01  -8.272582292557e-02 
  1.186516731977e-01   2.778616249561e-01   1.138311102986e-01   1.744551360607e-01   1.791234016418e-01   1.885554008186e-02   2.644504904747e-01   2.318795770407e-02   9.180589020252e-02 
  3.613210916519e-01   0.000000000000e+00  -2.363581210375e-01   5.780503749847e-01   3.616753220558e-02  -5.832141041756e-01   3.047368824482e-01   3.403582051396e-02  -2.387404292822e-01 