# vtk DataFile Version 2.0
Written using VisIt writer
ASCII
DATASET RECTILINEAR_GRID
DIMENSIONS 10 10 10
X_COORDINATES 10 float
  0.000000000000e+00   5.000000000000e-01   1.000000000000e+00   1.500000000000e+00   2.000000000000e+00   2.500000000000e+00   3.000000000000e+00   3.500000000000e+00   4.000000000000e+00 
  4.500000000000e+00 
Y_COORDINATES 10 float
  0.000000000000e+00   5.000000000000e-01   1.000000000000e+00   1.500000000000e+00   2.000000000000e+00   2.500000000000e+00   3.000000000000e+00   3.500000000000e+00   4.000000000000e+00 
  4.500000000000e+00 
Z_COORDINATES 10 float
  0.000000000000e+00   5.000000000000e-01   1.000000000000e+00   1.500000000000e+00   2.000000000000e+00   2.500000000000e+00   3.000000000000e+00   3.500000000000e+00   4.000000000000e+00 
  4.500000000000e+00 
CELL_DATA 729
POINT_DATA 1000
VECTORS velocity float
  0.000000000000e+00  -9.636806696653e-02  -2.171561419964e-01   3.251200000000e+04   0.000000000000e+00   0.000000000000e+00   0.000000000000e+00   0.000000000000e+00   0.000000000000e+00 
  1.463374942541e-01  -4.588635638356e-02  -1.405718773603e-01   0.000000000000e+00   0.000000000000e+00   0.000000000000e+00   0.000000000000e+00   1.431655808000e+09   1.070945600000e+09 
  1.038432419300e-01  -7.520891726017e-02  -1.576447784901e-01   1.071994176000e+09   0.000000000000e+00   0.000000000000e+00   0.000000000000e+00   0.000000000000e+00   0.000000000000e+00 
  2.152817398310e-01  -1.071182191372e-01  -1.807559430599e-01   0.000000000000e+00  -9.636806696653e-02  -2.171561419964e-01   1.070945600000e+09   0.000000000000e+00   0.000000000000e+00 
  1.043027490377e-01  -8.035770058632e-02  -1.824861168861e-01   1.463374942541e-01  -4.588635638356e-02  -1.405718773603e-01   1.431655808000e+09   1.070945600000e+09   0.000000000000e+00 
  8.930720388889e-02  -4.771778732538e-02  -1.362311989069e-01   1.038432419300e-01  -7.520891726017e-02  -1.576447784901e-01   0.000000000000e+00   0.000000000000e+00   1.071644672000e+09 
  2.152817398310e-01  -1.071182191372e-01  -1.807559430599e-01   2.152817398310e-01  -1.071182191372e-01  -1.807559430599e-01   0.000000000000e+00   8.129804581404e-02  -1.744603812695e-01 
  0.000000000000e+00   8.129804581404e-02  -1.744603812695e-01  -2.334932237864e-02  -8.132982999086e-02  -1.879529207945e-01   2.277613990009e-02  -2.972669601440e-01  -1.788342595100e-01 
  6.504777353257e-03  -2.504322826862e-01  -1.824673861265e-01   4.497456178069e-02  -1.426897794008e-01  -1.468422412872e-01   1.021451577544e-01  -1.156519749202e-03  -1.363459229469e-01 
  1.046663299203e-01   5.010167509317e-02  -1.312870383263e-01   1.900740712881e-01   4.935567453504e-02  -1.404500901699e-01   1.900740712881e-01   4.935567453504e-02  -1.404500901699e-01 
  0.000000000000e+00   2.284547314048e-02  -1.531100124121e-01   0.000000000000e+00   2.284547314048e-02  -1.531100124121e-01   4.208909347653e-02   3.000995703042e-02  -1.484295129776e-01 
 -1.037341263145e-02   1.315393485129e-02  -1.323916167021e-01   3.862392157316e-02   3.853705711663e-03  -1.379804760218e-01   8.818476647139e-02  -1.317252665758e-01  -1.445657759905e-01 
  7.128921896219e-02  -3.864956274629e-02  -1.785954535007e-01   1.516489684582e-01   9.080757200718e-02  -1.331720650196e-01   2.120377868414e-01   1.333817932755e-02  -1.305491328239e-01 
  2.120377868414e-01   1.333817932755e-02  -1.305491328239e-01   0.000000000000e+00  -9.328177571297e-02  -1.815483868122e-01   0.000000000000e+00  -9.328177571297e-02  -1.815483868122e-01 
 -1.755995559506e-03  -3.134594857693e-02  -1.986878216267e-01   1.048700734973e-01   1.164226979017e-02  -1.388814151287e-01   7.995707541704e-02   3.138015046716e-02  -1.344120651484e-01 
  8.195424824953e-02   1.873471774161e-02  -1.263359338045e-01   8.319574594498e-02   5.331023409963e-02  -1.446936875582e-01   9.633362293243e-02  -2.165773510933e-02  -1.539693772793e-01 
  2.252630442381e-01  -8.917193114758e-02  -1.786388158798e-01   2.252630442381e-01  -8.917193114758e-02  -1.786388158798e-01   0.000000000000e+00  -2.940466813743e-02  -1.567765623331e-01 
  0.000000000000e+00  -2.940466813743e-02  -1.567765623331e-01   4.717476665974e-02   1.259289775044e-02  -1.592547893524e-01   6.099448353052e-02  -3.774857521057e-02  -1.643819510937e-01 
  1.303972117603e-02  -7.864023000002e-02  -2.104096710682e-01   9.351032227278e-02  -2.434420026839e-02  -1.437155008316e-01   1.475392878056e-01   4.888562485576e-02  -1.314632296562e-01 
  1.232708767056e-01   4.904719814658e-02  -1.294122934341e-01   2.340772747993e-01  -1.497325394303e-02  -1.419696062803e-01   2.340772747993e-01  -1.497325394303e-02  -1.419696062803e-01 
  0.000000000000e+00  -1.431487798691e-01  -1.721075922251e-01   0.000000000000e+00  -1.431487798691e-01  -1.721075922251e-01   1.162149757147e-01  -3.125466778874e-02  -1.548795253038e-01 
  2.204784750938e-02   2.257622964680e-02  -1.468334794044e-01   1.954724825919e-02   4.431960359216e-02  -1.749298572540e-01   3.741724416614e-02  -1.088375449181e-01  -1.692790985107e-01 
  8.849798887968e-02  -1.362737384625e-03  -1.759932339191e-01   2.300402075052e-01  -6.920313928276e-03  -1.313611268997e-01   2.595980763435e-01  -2.061636559665e-02  -1.380355507135e-01 
  2.595980763435e-01  -2.061636559665e-02  -1.380355507135e-01   0.000000000000e+00  -2.271978557110e-01  -2.235575765371e-01   0.000000000000e+00  -2.271978557110e-01  -2.235575765371e-01 
 -1.930804178119e-02  -4.589372873306e-02  -2.218186259270e-01   8.107565343380e-02   6.802280433476e-03  -1.538345366716e-01   8.947150409222e-02   6.538091599941e-02  -1.566697061062e-01 
  1.506245322526e-02   3.127603605390e-02  -1.386831551790e-01   7.861047983170e-02  -1.670527830720e-02  -1.471811830997e-01   1.467799842358e-01  -1.004186198115e-01  -1.618759930134e-01 
  2.092211991549e-01  -7.406579703093e-02  -2.181591093540e-01   2.092211991549e-01  -7.406579703093e-02  -2.181591093540e-01   0.000000000000e+00   0.000000000000e+00  -1.810936778784e-01 
  0.000000000000e+00   0.000000000000e+00  -1.810936778784e-01  -5.623492598534e-02   0.000000000000e+00  -1.990642547607e-01  -7.118922472000e-02   0.000000000000e+00  -1.665095984936e-01 
  8.749721199274e-02   0.000000000000e+00  -1.846619248390e-01   2.115282267332e-01   0.000000000000e+00  -1.284354180098e-01   2.088382542133e-01   0.000000000000e+00  -1.192803606391e-01 
  2.174419015646e-01   0.000000000000e+00  -1.238631904125e-01   2.770463228226e-01   0.000000000000e+00  -1.375767141581e-01   2.770463228226e-01   0.000000000000e+00  -1.375767141581e-01 
  0.000000000000e+00   0.000000000000e+00  -1.810936778784e-01   0.000000000000e+00   0.000000000000e+00  -1.810936778784e-01  -5.623492598534e-02   0.000000000000e+00  -1.990642547607e-01 
 -7.118922472000e-02   0.000000000000e+00  -1.665095984936e-01   8.749721199274e-02   0.000000000000e+00  -1.846619248390e-01   2.115282267332e-01   0.000000000000e+00  -1.284354180098e-01 
  2.088382542133e-01   0.000000000000e+00  -1.192803606391e-01   2.174419015646e-01   0.000000000000e+00  -1.238631904125e-01   2.770463228226e-01   0.000000000000e+00  -1.375767141581e-01 
  2.770463228226e-01   0.000000000000e+00  -1.375767141581e-01   0.000000000000e+00  -9.636806696653e-02  -2.171561419964e-01   0.000000000000e+00  -9.636806696653e-02  -2.171561419964e-01 
  1.043027490377e-01  -8.035770058632e-02  -1.824861168861e-01   1.463374942541e-01  -4.588635638356e-02  -1.405718773603e-01   1.247822046280e-01  -5.163331329823e-02  -1.440885961056e-01 
  8.930720388889e-02  -4.771778732538e-02  -1.362311989069e-01   1.038432419300e-01  -7.520891726017e-02  -1.576447784901e-01   1.871826350689e-01  -7.430773228407e-02  -1.646322458982e-01 
  2.152817398310e-01  -1.071182191372e-01  -1.807559430599e-01   2.152817398310e-01  -1.071182191372e-01  -1.807559430599e-01   0.000000000000e+00  -9.636806696653e-02  -2.171561419964e-01 
  0.000000000000e+00  -9.636806696653e-02  -2.171561419964e-01   1.043027490377e-01  -8.035770058632e-02  -1.824861168861e-01   1.463374942541e-01  -4.588635638356e-02  -1.405718773603e-01 
  1.247822046280e-01  -5.163331329823e-02  -1.440885961056e-01   8.930720388889e-02  -4.771778732538e-02  -1.362311989069e-01   1.038432419300e-01  -7.520891726017e-02  -1.576447784901e-01 
  1.871826350689e-01  -7.430773228407e-02  -1.646322458982e-01   2.152817398310e-01  -1.071182191372e-01  -1.807559430599e-01   2.152817398310e-01  -1.071182191372e-01  -1.807559430599e-01 
  0.000000000000e+00   8.129804581404e-02  -1.744603812695e-01   0.000000000000e+00   8.129804581404e-02  -1.744603812695e-01  -2.334932237864e-02  -8.132982999086e-02  -1.879529207945e-01 
  2.277613990009e-02  -2.972669601440e-01  -1.788342595100e-01   6.504777353257e-03  -2.504322826862e-01  -1.824673861265e-01   4.497456178069e-02  -1.426897794008e-01  -1.468422412872e-01 
  1.021451577544e-01  -1.156519749202e-03  -1.363459229469e-01   1.046663299203e-01   5.010167509317e-02  -1.312870383263e-01   1.900740712881e-01   4.935567453504e-02  -1.404500901699e-01 
  1.900740712881e-01   4.935567453504e-02  -1.404500901699e-01   0.000000000000e+00   2.284547314048e-02  -1.531100124121e-01   0.000000000000e+00   2.284547314048e-02  -1.531100124121e-01 
  4.208909347653e-02   3.000995703042e-02  -1.484295129776e-01  -1.037341263145e-02   1.315393485129e-02  -1.323916167021e-01   3.862392157316e-02   3.853705711663e-03  -1.379804760218e-01 
  8.818476647139e-02  -1.317252665758e-01  -1.445657759905e-01   7.128921896219e-02  -3.864956274629e-02  -1.785954535007e-01   1.516489684582e-01   9.080757200718e-02  -1.331720650196e-01 
  2.120377868414e-01   1.333817932755e-02  -1.305491328239e-01   2.120377868414e-01   1.333817932755e-02  -1.305491328239e-01   0.000000000000e+00  -9.328177571297e-02  -1.815483868122e-01 
  0.000000000000e+00  -9.328177571297e-02  -1.815483868122e-01  -1.755995559506e-03  -3.134594857693e-02  -1.986878216267e-01   1.048700734973e-01   1.164226979017e-02  -1.388814151287e-01 
  7.995707541704e-02   3.138015046716e-02  -1.344120651484e-01   8.195424824953e-02   1.873471774161e-02  -1.263359338045e-01   8.319574594498e-02   5.331023409963e-02  -1.446936875582e-01 
  9.633362293243e-02  -2.165773510933e-02  -1.539693772793e-01   2.252630442381e-01  -8.917193114758e-02  -1.786388158798e-01   2.252630442381e-01  -8.917193114758e-02  -1.786388158798e-01 
  0.000000000000e+00  -2.940466813743e-02  -1.567765623331e-01   0.000000000000e+00  -2.940466813743e-02  -1.567765623331e-01   4.717476665974e-02   1.259289775044e-02  -1.592547893524e-01 
  6.099448353052e-02  -3.774857521057e-02  -1.643819510937e-01   1.303972117603e-02  -7.864023000002e-02  -2.104096710682e-01   9.351032227278e-02  -2.434420026839e-02  -1.437155008316e-01 
  1.475392878056e-01   4.888562485576e-02  -1.314632296562e-01   1.232708767056e-01   4.904719814658e-02  -1.294122934341e-01   2.340772747993e-01  -1.497325394303e-02  -1.419696062803e-01 
  2.340772747993e-01  -1.497325394303e-02  -1.419696062803e-01   0.000000000000e+00  -1.431487798691e-01  -1.721075922251e-01   0.000000000000e+00  -1.431487798691e-01  -1.721075922251e-01 
  1.162149757147e-01  -3.125466778874e-02  -1.548795253038e-01   2.204784750938e-02   2.257622964680e-02  -1.468334794044e-01   1.954724825919e-02   4.431960359216e-02  -1.749298572540e-01 
  3.741724416614e-02  -1.088375449181e-01  -1.692790985107e-01   8.849798887968e-02  -1.362737384625e-03  -1.759932339191e-01   2.300402075052e-01  -6.920313928276e-03  -1.313611268997e-01 
  2.595980763435e-01  -2.061636559665e-02  -1.380355507135e-01   2.595980763435e-01  -2.061636559665e-02  -1.380355507135e-01   0.000000000000e+00  -2.271978557110e-01  -2.235575765371e-01 
  0.000000000000e+00  -2.271978557110e-01  -2.235575765371e-01  -1.930804178119e-02  -4.589372873306e-02  -2.218186259270e-01   8.107565343380e-02   6.802280433476e-03  -1.538345366716e-01 
  8.947150409222e-02   6.538091599941e-02  -1.566697061062e-01   1.506245322526e-02   3.127603605390e-02  -1.386831551790e-01   7.861047983170e-02  -1.670527830720e-02  -1.471811830997e-01 
  1.467799842358e-01  -1.004186198115e-01  -1.618759930134e-01   2.092211991549e-01  -7.406579703093e-02  -2.181591093540e-01   2.092211991549e-01  -7.406579703093e-02  -2.181591093540e-01 
  0.000000000000e+00   0.000000000000e+00  -1.810936778784e-01   0.000000000000e+00   0.000000000000e+00  -1.810936778784e-01  -5.623492598534e-02   0.000000000000e+00  -1.990642547607e-01 
 -7.118922472000e-02   0.000000000000e+00  -1.665095984936e-01   8.749721199274e-02   0.000000000000e+00  -1.846619248390e-01   2.115282267332e-01   0.000000000000e+00  -1.284354180098e-01 
  2.088382542133e-01   0.000000000000e+00  -1.192803606391e-01   2.174419015646e-01   0.000000000000e+00  -1.238631904125e-01   2.770463228226e-01   0.000000000000e+00  -1.375767141581e-01 
  2.770463228226e-01   0.000000000000e+00  -1.375767141581e-01   0.000000000000e+00   0.000000000000e+00  -1.810936778784e-01   0.000000000000e+00   0.000000000000e+00  -1.810936778784e-01 
 -5.623492598534e-02   0.000000000000e+00  -1.990642547607e-01  -7.118922472000e-02   0.000000000000e+00  -1.665095984936e-01   8.749721199274e-02   0.000000000000e+00  -1.846619248390e-01 
  2.115282267332e-01   0.000000000000e+00  -1.284354180098e-01   2.088382542133e-01   0.000000000000e+00  -1.192803606391e-01   2.174419015646e-01   0.000000000000e+00  -1.238631904125e-01 
  2.770463228226e-01   0.000000000000e+00  -1.375767141581e-01   2.770463228226e-01   0.000000000000e+00  -1.375767141581e-01   0.000000000000e+00  -1.440597921610e-01  -9.120658040047e-01 
  0.000000000000e+00  -1.440597921610e-01  -9.120658040047e-01   6.508804112673e-02  -5.574180558324e-02  -8.713605999947e-01   1.589022159576e+00   1.340184211731e-01  -9.664448499680e-01 
  8.521010279655e-01   4.399085789919e-02  -5.136723518372e-01   4.205780029297e-01  -2.783655226231e-01  -7.009222507477e-01   2.141643464565e-01  -1.123515143991e-02  -6.867288947105e-01 
  9.716920256615e-01  -1.275227870792e-02  -8.166646957397e-01   9.971966147423e-01  -6.486679892987e-03  -7.877887487411e-01   9.971966147423e-01  -6.486679892987e-03  -7.877887487411e-01 
  0.000000000000e+00  -1.440597921610e-01  -9.120658040047e-01   0.000000000000e+00  -1.440597921610e-01  -9.120658040047e-01   6.508804112673e-02  -5.574180558324e-02  -8.713605999947e-01 
  1.589022159576e+00   1.340184211731e-01  -9.664448499680e-01   8.521010279655e-01   4.399085789919e-02  -5.136723518372e-01   4.205780029297e-01  -2.783655226231e-01  -7.009222507477e-01 
  2.141643464565e-01  -1.123515143991e-02  -6.867288947105e-01   9.716920256615e-01  -1.275227870792e-02  -8.166646957397e-01   9.971966147423e-01  -6.486679892987e-03  -7.877887487411e-01 
  9.971966147423e-01  -6.486679892987e-03  -7.877887487411e-01   0.000000000000e+00   1.022690460086e-01  -1.032424926758e+00   0.000000000000e+00   1.022690460086e-01  -1.032424926758e+00 
  5.919111147523e-02  -1.129308715463e-01  -9.930217266083e-01   5.252125263214e-01   2.463193237782e-01  -7.185810208321e-01   4.293029010296e-01   4.548534452915e-01  -5.440965294838e-01 
  2.808148860931e-01  -6.912066340446e-01  -3.069550395012e-01   3.668198287487e-01   3.479746403173e-03  -2.812598347664e-01   3.936749100685e-01   1.275227870792e-02  -6.871296465397e-02 
  4.697426557541e-01   2.950195968151e-02  -5.954991653562e-02   4.697426557541e-01   2.950195968151e-02  -5.954991653562e-02   0.000000000000e+00   1.655555963516e-01  -4.876345396042e-01 
  0.000000000000e+00   1.655555963516e-01  -4.876345396042e-01   1.794144064188e-01   1.592943817377e-01  -6.858180165291e-01   2.689726948738e-01   1.059727892280e-01  -8.099657297134e-01 
  4.944604262710e-02   5.112553387880e-02  -6.201951950788e-02   1.654472202063e-01  -2.074464857578e-01  -2.730399966240e-01   1.767075806856e-01  -1.242856755853e-01  -2.390103191137e-01 
  2.009756565094e-01   7.033826410770e-02  -6.682793051004e-02   2.117692977190e-01   2.069298177958e-02  -6.945087015629e-02   2.117692977190e-01   2.069298177958e-02  -6.945087015629e-02 
  0.000000000000e+00  -3.530326187611e-01  -6.788845658302e-01   0.000000000000e+00  -3.530326187611e-01  -6.788845658302e-01   1.910364031792e-01  -1.598605960608e-01  -8.434497714043e-01 
  1.511047482491e-01   1.469916757196e-02  -1.061027169228e+00   1.310099959373e-01   0.000000000000e+00  -5.678564906120e-01   1.642398983240e-01  -3.114728629589e-02  -2.143641561270e-01 
  1.004398688674e-01   4.372850060463e-02  -5.530630797148e-02   2.231454402208e-01   0.000000000000e+00  -4.603061452508e-02   3.348943889141e-01  -8.633258193731e-02  -2.136119082570e-02 
  3.348943889141e-01  -8.633258193731e-02  -2.136119082570e-02   0.000000000000e+00   3.011638671160e-02  -8.476670980453e-01   0.000000000000e+00   3.011638671160e-02  -8.476670980453e-01 
  3.862425982952e-01   1.591089218855e-01  -7.059705853462e-01   6.001195311546e-01   3.530863299966e-02  -1.482199549675e+00   2.038238942623e-01   1.411875784397e-01  -6.195872426033e-01 
  3.248546719551e-01   3.245406597853e-02  -3.898236155510e-01   1.919383555651e-01   4.664486274123e-02  -4.528283774853e-01   9.960628747940e-01   0.000000000000e+00  -7.058770954609e-02 
  1.011977791786e+00  -7.415164262056e-03  -5.803039297462e-02   1.011977791786e+00  -7.415164262056e-03  -5.803039297462e-02   0.000000000000e+00   7.653362303972e-02  -9.126730561256e-01 
  0.000000000000e+00   7.653362303972e-02  -9.126730561256e-01   3.718879222870e-01   9.712719917297e-01  -6.175129413605e-01   8.271133303642e-01   7.948784530163e-02  -1.128194928169e+00 
  2.206377238035e-01   1.363994628191e-01  -1.587834477425e+00   5.638969540596e-01   1.378096081316e-02  -1.512062191963e+00   2.368991672993e-01   1.213023290038e-01  -1.423848986626e+00 
  2.515491485596e+00   3.485855460167e-01  -1.760122299194e+00   2.225360870361e+00   7.235264033079e-02  -1.791752457619e+00   2.225360870361e+00   7.235264033079e-02  -1.791752457619e+00 
  0.000000000000e+00  -1.170971021056e-01  -8.298264741898e-01   0.000000000000e+00  -1.170971021056e-01  -8.298264741898e-01   1.060671582818e-01  -1.160841882229e-01  -4.640664160252e-01 
  3.385028541088e-01   1.688478328288e-02  -1.106490492821e+00   7.015179842710e-02   2.696728520095e-02  -1.998632550240e+00   5.105355381966e-01   2.912165969610e-02  -1.677473306656e+00 
  1.737716943026e-01   9.606362134218e-02  -1.596839427948e+00   7.248562574387e-01   2.609200477600e-01  -1.753210067749e+00  -7.870489358902e-02  -4.326542466879e-02  -1.968781113625e+00 
 -7.870489358902e-02  -4.326542466879e-02  -1.968781113625e+00   0.000000000000e+00   0.000000000000e+00  -8.253862261772e-01   0.000000000000e+00   0.000000000000e+00  -8.253862261772e-01 
 -1.589909344912e-01   0.000000000000e+00  -8.226652741432e-01   2.714200913906e-01   0.000000000000e+00  -1.315476179123e+00  -1.568589545786e-02   0.000000000000e+00  -2.484172344208e+00 
  1.549561470747e-01   4.480255302042e-03  -2.535425186157e+00   3.573438525200e-01   2.677227929235e-02  -8.071963489056e-02   6.004223227501e-01   5.985131859779e-02  -7.613681256771e-02 
  1.375776529312e-01   0.000000000000e+00  -6.242328882217e-02   1.375776529312e-01   0.000000000000e+00  -6.242328882217e-02   0.000000000000e+00   0.000000000000e+00  -8.253862261772e-01 
  0.000000000000e+00   0.000000000000e+00  -8.253862261772e-01  -1.589909344912e-01   0.000000000000e+00  -8.226652741432e-01   2.714200913906e-01   0.000000000000e+00  -1.315476179123e+00 
 -1.568589545786e-02   0.000000000000e+00  -2.484172344208e+00   1.549561470747e-01   4.480255302042e-03  -2.535425186157e+00   3.573438525200e-01   2.677227929235e-02  -8.071963489056e-02 
  6.004223227501e-01   5.985131859779e-02  -7.613681256771e-02   1.375776529312e-01   0.000000000000e+00  -6.242328882217e-02   1.375776529312e-01   0.000000000000e+00  -6.242328882217e-02 
  0.000000000000e+00  -2.370299212635e-02  -6.407855153084e-01   0.000000000000e+00  -2.370299212635e-02  -6.407855153084e-01   6.762499362230e-02  -2.327245622873e-01  -8.048031330109e-01 
  2.453726679087e-01   3.015472553670e-02  -5.216175913811e-01   0.000000000000e+00  -4.667843133211e-02  -3.809740245342e-01   3.799572288990e-01  -8.039293289185e-01  -5.412654876709e-01 
  3.251366913319e-01  -2.874013483524e-01  -7.294280529022e-01   6.425217986107e-01   0.000000000000e+00  -8.557924032211e-01   0.000000000000e+00  -3.547390690073e-03  -8.685446977615e-01 
  0.000000000000e+00  -3.547390690073e-03  -8.685446977615e-01   0.000000000000e+00  -2.370299212635e-02  -6.407855153084e-01   0.000000000000e+00  -2.370299212635e-02  -6.407855153084e-01 
  6.762499362230e-02  -2.327245622873e-01  -8.048031330109e-01   2.453726679087e-01   3.015472553670e-02  -5.216175913811e-01   0.000000000000e+00  -4.667843133211e-02  -3.809740245342e-01 
  3.799572288990e-01  -8.039293289185e-01  -5.412654876709e-01   3.251366913319e-01  -2.874013483524e-01  -7.294280529022e-01   6.425217986107e-01   0.000000000000e+00  -8.557924032211e-01 
  0.000000000000e+00  -3.547390690073e-03  -8.685446977615e-01   0.000000000000e+00  -3.547390690073e-03  -8.685446977615e-01   0.000000000000e+00   4.044515639544e-02  -4.293125569820e-01 
  0.000000000000e+00   4.044515639544e-02  -4.293125569820e-01   8.326117694378e-02  -1.943667531013e-01  -4.742555618286e-01   2.052662372589e-01   1.543154716492e-01  -6.144971847534e-01 
  3.018549978733e-01  -2.122654318810e-01  -5.008789896965e-01   3.278847038746e-01  -1.107688546181e+00  -5.237869620323e-01   3.717937171459e-01  -7.582061886787e-01  -5.542151331902e-01 
  0.000000000000e+00  -6.518278270960e-03  -4.349173903465e-01   2.460876405239e-01   1.336621306837e-02  -2.831038534641e-01   2.460876405239e-01   1.336621306837e-02  -2.831038534641e-01 
  0.000000000000e+00   3.505515679717e-02  -3.001129627228e-01   0.000000000000e+00   3.505515679717e-02  -3.001129627228e-01   9.046068787575e-02   5.821559950709e-02  -4.520488381386e-01 
 -9.274643659592e-02   7.516840100288e-02  -5.051431655884e-01   5.603293329477e-02  -4.930998980999e-01  -1.680598556995e-01   2.775802612305e-01  -1.063779473305e+00  -3.176057636738e-01 
  2.942529320717e-01  -7.381900548935e-01  -3.524321317673e-01   1.562203168869e-01  -1.492549031973e-01  -1.883421093225e-01   2.368307858706e-01  -1.267570070922e-02  -7.901047915220e-02 
  2.368307858706e-01  -1.267570070922e-02  -7.901047915220e-02   0.000000000000e+00  -6.734272837639e-02  -2.523552775383e-01   0.000000000000e+00  -6.734272837639e-02  -2.523552775383e-01 
  5.210643634200e-02   1.334467381239e-01  -1.694965660572e-01   1.845740228891e-01   8.820429444313e-02  -1.150681734085e+00   1.867615282536e-01  -1.285654585809e-02  -2.407000809908e-01 
  2.036423981190e-01   0.000000000000e+00  -2.348487824202e-01   1.337614357471e-01  -1.594983488321e-01  -9.380503743887e-02   3.624903261662e-01  -3.014790080488e-02  -1.000000014901e-01 
  5.675834417343e-01  -8.073430508375e-02  -7.824768126011e-02   5.675834417343e-01  -8.073430508375e-02  -7.824768126011e-02   0.000000000000e+00   1.150847598910e-01  -3.473732769489e-01 
  0.000000000000e+00   1.150847598910e-01  -3.473732769489e-01   2.048844099045e-01   9.461158514023e-02  -2.022594399750e-02   3.629337847233e-01   8.987810462713e-02  -1.445139646530e+00 
  2.603408098221e-01   1.613700240850e-01  -1.841831505299e-01   3.028582930565e-01   7.264848053455e-02  -3.130547404289e-01   2.451316267252e-01   4.741407558322e-02  -6.558868885040e-01 
  1.474753975868e+00   0.000000000000e+00  -1.000000014901e-01   1.461341023445e+00   8.333416655660e-03  -5.016882419586e-01   1.461341023445e+00   8.333416655660e-03  -5.016882419586e-01 
  0.000000000000e+00   6.013457104564e-02  -4.005834460258e-01   0.000000000000e+00   6.013457104564e-02  -4.005834460258e-01   6.302480399609e-02  -9.214577823877e-02  -6.703562736511e-01 
  4.044525325298e-01   1.040842086077e-01  -1.614889979362e+00   2.521490454674e-01   2.045176476240e-01  -2.170953035355e+00   4.121855199337e-01   8.903016149998e-02  -1.540994524956e+00 
  3.966316878796e-01   1.539849489927e-01  -1.732255220413e+00   2.388076782227e+00   3.249828517437e-01  -1.838688731194e+00   2.273738622665e+00   9.816673398018e-02  -1.815340280533e+00 
  2.273738622665e+00   9.816673398018e-02  -1.815340280533e+00   0.000000000000e+00  -1.719696521759e-01  -6.065686345100e-01   0.000000000000e+00  -1.719696521759e-01  -6.065686345100e-01 
  1.013530716300e-01  -1.141042113304e-01  -9.605926871300e-01   2.858754396439e-01   5.549004301429e-02  -1.613861441612e+00   2.386672981083e-02   2.004349976778e-02  -2.146171569824e+00 
  1.264521181583e-01   2.986895292997e-02  -1.766786217690e+00   4.119129478931e-01   5.327957123518e-02  -3.067862033844e+00   5.973278284073e-01   2.863561511040e-01  -1.812671184540e+00 
  7.785473018885e-02  -3.308276087046e-02  -1.831708073616e+00   7.785473018885e-02  -3.308276087046e-02  -1.831708073616e+00   0.000000000000e+00   0.000000000000e+00  -7.905678153038e-01 
  0.000000000000e+00   0.000000000000e+00  -7.905678153038e-01   7.315048575401e-02   0.000000000000e+00  -3.271702528000e-01   1.794674545527e-01   0.000000000000e+00  -1.353191137314e+00 
 -1.510820090771e-01   0.000000000000e+00  -1.047235965729e+00  -2.361654490232e-01   1.529709435999e-03  -1.089777708054e+00   4.406379163265e-01   0.000000000000e+00  -3.158450365067e+00 
  6.218144297600e-01   2.335138991475e-02  -3.067862033844e+00   3.824182152748e-01  -1.055790390819e-02  -1.028981924057e+00   3.824182152748e-01  -1.055790390819e-02  -1.028981924057e+00 
  0.000000000000e+00   0.000000000000e+00  -7.905678153038e-01   0.000000000000e+00   0.000000000000e+00  -7.905678153038e-01   7.315048575401e-02   0.000000000000e+00  -3.271702528000e-01 
  1.794674545527e-01   0.000000000000e+00  -1.353191137314e+00  -1.510820090771e-01   0.000000000000e+00  -1.047235965729e+00  -2.361654490232e-01   1.529709435999e-03  -1.089777708054e+00 
  4.406379163265e-01   0.000000000000e+00  -3.158450365067e+00   6.218144297600e-01   2.335138991475e-02  -3.067862033844e+00   3.824182152748e-01  -1.055790390819e-02  -1.028981924057e+00 
  3.824182152748e-01  -1.055790390819e-02  -1.028981924057e+00   0.000000000000e+00  -7.928068190813e-02  -5.682623386383e-01   0.000000000000e+00  -7.928068190813e-02  -5.682623386383e-01 
  3.965378925204e-02   1.558899506927e-02  -7.998651266098e-01   1.958500146866e-01   9.479880332947e-03  -4.626629352570e-01   0.000000000000e+00  -6.140681728721e-02  -3.788512051105e-01 
  2.591889202595e-01  -3.705403804779e-01  -5.600686669350e-01   1.475474238396e-02  -2.152871573344e-03  -3.606849908829e-01   0.000000000000e+00   0.000000000000e+00  -1.000000014901e-01 
  0.000000000000e+00   1.278419885784e-02  -1.000000014901e-01   0.000000000000e+00   1.278419885784e-02  -1.000000014901e-01   0.000000000000e+00  -7.928068190813e-02  -5.682623386383e-01 
  0.000000000000e+00  -7.928068190813e-02  -5.682623386383e-01   3.965378925204e-02   1.558899506927e-02  -7.998651266098e-01   1.958500146866e-01   9.479880332947e-03  -4.626629352570e-01 
  0.000000000000e+00  -6.140681728721e-02  -3.788512051105e-01   2.591889202595e-01  -3.705403804779e-01  -5.600686669350e-01   1.475474238396e-02  -2.152871573344e-03  -3.606849908829e-01 
  0.000000000000e+00   0.000000000000e+00  -1.000000014901e-01   0.000000000000e+00   1.278419885784e-02  -1.000000014901e-01   0.000000000000e+00   1.278419885784e-02  -1.000000014901e-01 
  0.000000000000e+00  -1.727071553469e-01  -2.835482358932e-01   0.000000000000e+00  -1.727071553469e-01  -2.835482358932e-01   3.941714391112e-02  -2.123231999576e-02  -3.216331899166e-01 
  1.308018416166e-01  -3.602767130360e-03  -6.328185796738e-01   1.871561557055e-01  -1.448319256306e-01  -1.000000014901e-01   0.000000000000e+00   0.000000000000e+00  -5.381141901016e-01 
  0.000000000000e+00  -6.903286557645e-03  -5.600686669350e-01   0.000000000000e+00   0.000000000000e+00  -2.850816249847e-01   0.000000000000e+00   1.361928600818e-02  -2.260892093182e-01 
  0.000000000000e+00   1.361928600818e-02  -2.260892093182e-01   0.000000000000e+00   5.380937829614e-02  -1.168738976121e-01   0.000000000000e+00   5.380937829614e-02  -1.168738976121e-01 
 -2.073137648404e-02   5.507194995880e-02  -3.404754102230e-01  -5.152059718966e-02   5.953755602241e-02  -9.925026893616e-01   3.611761704087e-02  -2.355845570564e-01  -1.645785123110e-01 
  1.510608643293e-01   0.000000000000e+00  -1.000000014901e-01   1.558469682932e-01  -2.847764790058e-01  -3.386013805866e-01   3.977217152715e-02  -2.546658366919e-02  -2.541297078133e-01 
  1.002310775220e-02  -3.497717902064e-03  -1.545229703188e-01   1.002310775220e-02  -3.497717902064e-03  -1.545229703188e-01   0.000000000000e+00   3.193988204002e-01  -2.246032208204e-01 
  0.000000000000e+00   3.193988204002e-01  -2.246032208204e-01  -4.929355904460e-02   2.574124634266e-01  -3.768907785416e-01   1.645547300577e-01   2.102272957563e-01  -4.593864977360e-01 
  1.147343814373e-01  -1.574270799756e-02  -2.469181716442e-01   1.422520279884e-01   0.000000000000e+00  -2.360521554947e-01   1.387597173452e-01  -1.553642004728e-01  -1.782937794924e-01 
  5.638089179993e-01  -5.420389398932e-02  -1.035118326545e-01   8.175520896912e-01  -7.023783773184e-02  -1.645638793707e-01   8.175520896912e-01  -7.023783773184e-02  -1.645638793707e-01 
  0.000000000000e+00   4.091900289059e-01  -4.739162027836e-01   0.000000000000e+00   4.091900289059e-01  -4.739162027836e-01   1.057143732905e-01   5.264140367508e-01  -5.291814208031e-01 
  4.485326707363e-01   4.943293631077e-01  -5.088644623756e-01   0.000000000000e+00   3.252550065517e-01  -1.000000014901e-01   0.000000000000e+00   1.628690063953e-01  -2.247290611267e-01 
  2.146886587143e-01   4.577848315239e-02  -8.572176098824e-01   1.660098195076e+00   0.000000000000e+00  -1.000000014901e-01   1.663229703903e+00   1.545985322446e-02  -5.796383619308e-01 