# vtk DataFile Version 2.0
Written using VisIt writer
ASCII
DATASET RECTILINEAR_GRID
DIMENSIONS 10 10 10
X_COORDINATES 10 float
  0.000000000000e+00   5.000000000000e-01   1.000000000000e+00   1.500000000000e+00   2.000000000000e+00   2.500000000000e+00   3.000000000000e+00   3.500000000000e+00   4.000000000000e+00 
  4.500000000000e+00 
Y_COORDINATES 10 float
  0.000000000000e+00   5.000000000000e-01   1.000000000000e+00   1.500000000000e+00   2.000000000000e+00   2.500000000000e+00   3.000000000000e+00   3.500000000000e+00   4.000000000000e+00 
  4.500000000000e+00 
Z_COORDINATES 10 float
  0.000000000000e+00   5.000000000000e-01   1.000000000000e+00   1.500000000000e+00   2.000000000000e+00   2.500000000000e+00   3.000000000000e+00   3.500000000000e+00   4.000000000000e+00 
  4.500000000000e+00 
CELL_DATA 729
POINT_DATA 1000
VECTORS velocity float
  0.000000000000e+00  -1.187691017985e-01  -2.073808014393e-01   3.251200000000e+04   0.000000000000e+00   0.000000000000e+00   0.000000000000e+00   0.000000000000e+00   0.000000000000e+00 
  1.038889735937e-01  -6.054304912686e-02  -1.495785415173e-01   0.000000000000e+00   0.000000000000e+00   0.000000000000e+00   0.000000000000e+00   1.431655808000e+09   1.070945600000e+09 
  1.522814631462e-01  -7.151052355766e-02  -1.556949317455e-01   1.071994176000e+09   0.000000000000e+00   0.000000000000e+00   0.000000000000e+00   0.000000000000e+00   0.000000000000e+00 
  1.689119189978e-01  -1.112985610962e-01  -1.829967200756e-01   0.000000000000e+00  -1.187691017985e-01  -2.073808014393e-01   1.070945600000e+09   0.000000000000e+00   0.000000000000e+00 
  6.791955977678e-02  -9.794649481773e-02  -1.984047144651e-01   1.038889735937e-01  -6.054304912686e-02  -1.495785415173e-01   1.431655808000e+09   1.070945600000e+09   0.000000000000e+00 
  1.202536821365e-01  -4.004294797778e-02  -1.300964504480e-01   1.522814631462e-01  -7.151052355766e-02  -1.556949317455e-01   0.000000000000e+00   0.000000000000e+00   1.071644672000e+09 
  1.689119189978e-01  -1.112985610962e-01  -1.829967200756e-01   1.689119189978e-01  -1.112985610962e-01  -1.829967200756e-01   0.000000000000e+00  -1.894619927043e-04  -1.706944555044e-01 
  0.000000000000e+00  -1.894619927043e-04  -1.706944555044e-01  -2.409451175481e-03  -8.735204488039e-02  -1.794246733189e-01   9.165074676275e-03  -2.721213996410e-01  -1.724210083485e-01 
  6.970756500959e-02  -2.109275311232e-01  -1.747599542141e-01   1.009481027722e-01  -1.108970865607e-01  -1.373881101608e-01   6.987299025059e-02  -4.155550152063e-02  -1.382730454206e-01 
  1.202191263437e-01   7.625452429056e-02  -1.313648819923e-01   1.257489025593e-01  -2.069186232984e-02  -1.469986736774e-01   1.257489025593e-01  -2.069186232984e-02  -1.469986736774e-01 
  0.000000000000e+00   1.873923465610e-02  -1.578099578619e-01   0.000000000000e+00   1.873923465610e-02  -1.578099578619e-01   6.255572289228e-02   3.948855679482e-03  -1.499939709902e-01 
 -1.402656175196e-02   6.360979378223e-02  -1.310959011316e-01   5.522710457444e-02   5.958917364478e-02  -1.356062144041e-01   1.340875923634e-01  -9.875591844320e-02  -1.414542496204e-01 
  1.103768870234e-01  -3.031147457659e-02  -1.779241114855e-01   1.740558594465e-01   7.477439939976e-02  -1.354333162308e-01   1.886474192142e-01  -2.065969165415e-03  -1.375838369131e-01 
  1.886474192142e-01  -2.065969165415e-03  -1.375838369131e-01   0.000000000000e+00  -8.276620879769e-03  -1.772471070290e-01   0.000000000000e+00  -8.276620879769e-03  -1.772471070290e-01 
 -1.546488143504e-02   5.306703504175e-03  -2.007625401020e-01   3.268330544233e-02   1.760347187519e-02  -1.449671089649e-01   8.977600932121e-02  -1.186870411038e-02  -1.355417370796e-01 
  9.277840703726e-02  -1.865609665401e-03  -1.283838748932e-01   9.813564270735e-02  -7.308979518712e-03  -1.475353986025e-01   1.471116989851e-01  -3.402926772833e-02  -1.544776260853e-01 
  1.433601975441e-01  -4.172566905618e-02  -1.822327375412e-01   1.433601975441e-01  -4.172566905618e-02  -1.822327375412e-01   0.000000000000e+00  -1.202760189772e-01  -1.792571097612e-01 
  0.000000000000e+00  -1.202760189772e-01  -1.792571097612e-01   6.235671788454e-02  -8.461083471775e-02  -1.866423785686e-01   5.663108453155e-02  -1.178016364574e-01  -1.731382608414e-01 
  5.194165185094e-02  -1.553200185299e-01  -1.990225017071e-01   1.195764988661e-01  -5.942609533668e-02  -1.425467729568e-01   1.208690851927e-01  -1.310770493001e-02  -1.347112655640e-01 
  1.465567052364e-01   2.047773078084e-02  -1.304999440908e-01   2.139395326376e-01   5.411706492305e-02  -1.433911025524e-01   2.139395326376e-01   5.411706492305e-02  -1.433911025524e-01 
  0.000000000000e+00  -1.199192553759e-01  -1.910444647074e-01   0.000000000000e+00  -1.199192553759e-01  -1.910444647074e-01   1.024721041322e-01  -5.966127663851e-02  -1.737440526485e-01 
  2.578066289425e-02  -2.555609680712e-02  -1.537187248468e-01   2.919808216393e-02  -1.390926633030e-02  -1.659211963415e-01   1.261507719755e-01  -1.525638103485e-01  -1.638785451651e-01 
  8.509159088135e-02  -9.314481914043e-02  -1.822793632746e-01   1.740018427372e-01  -5.833494290709e-02  -1.385789960623e-01   2.362018078566e-01  -8.608269505203e-03  -1.364101469517e-01 
  2.362018078566e-01  -8.608269505203e-03  -1.364101469517e-01   0.000000000000e+00  -2.149231433868e-01  -2.356102764606e-01   0.000000000000e+00  -2.149231433868e-01  -2.356102764606e-01 
 -1.397458277643e-02  -7.487755268812e-02  -2.396516650915e-01   6.785604357719e-02  -3.284592181444e-02  -1.726412028074e-01   8.175252377987e-02   1.326480600983e-02  -1.586121618748e-01 
  1.546311527491e-01   1.611747033894e-02  -1.390756964684e-01   1.293019950390e-01  -6.191499065608e-03  -1.483989804983e-01   1.221486404538e-01  -1.481890678406e-01  -1.613927334547e-01 
  1.832955926657e-01  -1.259400248528e-01  -1.961670070887e-01   1.832955926657e-01  -1.259400248528e-01  -1.961670070887e-01   0.000000000000e+00   0.000000000000e+00  -1.908568441868e-01 
  0.000000000000e+00   0.000000000000e+00  -1.908568441868e-01  -5.038294196129e-02   0.000000000000e+00  -1.991627663374e-01   6.700138002634e-02   0.000000000000e+00  -1.660383194685e-01 
  8.885182440281e-02   0.000000000000e+00  -1.935385614634e-01   1.843428462744e-01   0.000000000000e+00  -1.347861886024e-01   2.088773548603e-01   0.000000000000e+00  -1.182548999786e-01 
  1.942333728075e-01   0.000000000000e+00  -1.197533309460e-01   2.986547350883e-01   0.000000000000e+00  -1.259745806456e-01   2.986547350883e-01   0.000000000000e+00  -1.259745806456e-01 
  0.000000000000e+00   0.000000000000e+00  -1.908568441868e-01   0.000000000000e+00   0.000000000000e+00  -1.908568441868e-01  -5.038294196129e-02   0.000000000000e+00  -1.991627663374e-01 
  6.700138002634e-02   0.000000000000e+00  -1.660383194685e-01   8.885182440281e-02   0.000000000000e+00  -1.935385614634e-01   1.843428462744e-01   0.000000000000e+00  -1.347861886024e-01 
  2.088773548603e-01   0.000000000000e+00  -1.182548999786e-01   1.942333728075e-01   0.000000000000e+00  -1.197533309460e-01   2.986547350883e-01   0.000000000000e+00  -1.259745806456e-01 
  2.986547350883e-01   0.000000000000e+00  -1.259745806456e-01   0.000000000000e+00  -1.187691017985e-01  -2.073808014393e-01   0.000000000000e+00  -1.187691017985e-01  -2.073808014393e-01 
  6.791955977678e-02  -9.794649481773e-02  -1.984047144651e-01   1.038889735937e-01  -6.054304912686e-02  -1.495785415173e-01   1.413020938635e-01  -4.042696580291e-02  -1.359155178070e-01 
  1.202536821365e-01  -4.004294797778e-02  -1.300964504480e-01   1.522814631462e-01  -7.151052355766e-02  -1.556949317455e-01   1.430680900812e-01  -7.352454215288e-02  -1.659723222256e-01 
  1.689119189978e-01  -1.112985610962e-01  -1.829967200756e-01   1.689119189978e-01  -1.112985610962e-01  -1.829967200756e-01   0.000000000000e+00  -1.187691017985e-01  -2.073808014393e-01 
  0.000000000000e+00  -1.187691017985e-01  -2.073808014393e-01   6.791955977678e-02  -9.794649481773e-02  -1.984047144651e-01   1.038889735937e-01  -6.054304912686e-02  -1.495785415173e-01 
  1.413020938635e-01  -4.042696580291e-02  -1.359155178070e-01   1.202536821365e-01  -4.004294797778e-02  -1.300964504480e-01   1.522814631462e-01  -7.151052355766e-02  -1.556949317455e-01 
  1.430680900812e-01  -7.352454215288e-02  -1.659723222256e-01   1.689119189978e-01  -1.112985610962e-01  -1.829967200756e-01   1.689119189978e-01  -1.112985610962e-01  -1.829967200756e-01 
  0.000000000000e+00  -1.894619927043e-04  -1.706944555044e-01   0.000000000000e+00  -1.894619927043e-04  -1.706944555044e-01  -2.409451175481e-03  -8.735204488039e-02  -1.794246733189e-01 
  9.165074676275e-03  -2.721213996410e-01  -1.724210083485e-01   6.970756500959e-02  -2.109275311232e-01  -1.747599542141e-01   1.009481027722e-01  -1.108970865607e-01  -1.373881101608e-01 
  6.987299025059e-02  -4.155550152063e-02  -1.382730454206e-01   1.202191263437e-01   7.625452429056e-02  -1.313648819923e-01   1.257489025593e-01  -2.069186232984e-02  -1.469986736774e-01 
  1.257489025593e-01  -2.069186232984e-02  -1.469986736774e-01   0.000000000000e+00   1.873923465610e-02  -1.578099578619e-01   0.000000000000e+00   1.873923465610e-02  -1.578099578619e-01 
  6.255572289228e-02   3.948855679482e-03  -1.499939709902e-01  -1.402656175196e-02   6.360979378223e-02  -1.310959011316e-01   5.522710457444e-02   5.958917364478e-02  -1.356062144041e-01 
  1.340875923634e-01  -9.875591844320e-02  -1.414542496204e-01   1.103768870234e-01  -3.031147457659e-02  -1.779241114855e-01   1.740558594465e-01   7.477439939976e-02  -1.354333162308e-01 
  1.886474192142e-01  -2.065969165415e-03  -1.375838369131e-01   1.886474192142e-01  -2.065969165415e-03  -1.375838369131e-01   0.000000000000e+00  -8.276620879769e-03  -1.772471070290e-01 
  0.000000000000e+00  -8.276620879769e-03  -1.772471070290e-01  -1.546488143504e-02   5.306703504175e-03  -2.007625401020e-01   3.268330544233e-02   1.760347187519e-02  -1.449671089649e-01 
  8.977600932121e-02  -1.186870411038e-02  -1.355417370796e-01   9.277840703726e-02  -1.865609665401e-03  -1.283838748932e-01   9.813564270735e-02  -7.308979518712e-03  -1.475353986025e-01 
  1.471116989851e-01  -3.402926772833e-02  -1.544776260853e-01   1.433601975441e-01  -4.172566905618e-02  -1.822327375412e-01   1.433601975441e-01  -4.172566905618e-02  -1.822327375412e-01 
  0.000000000000e+00  -1.202760189772e-01  -1.792571097612e-01   0.000000000000e+00  -1.202760189772e-01  -1.792571097612e-01   6.235671788454e-02  -8.461083471775e-02  -1.866423785686e-01 
  5.663108453155e-02  -1.178016364574e-01  -1.731382608414e-01   5.194165185094e-02  -1.553200185299e-01  -1.990225017071e-01   1.195764988661e-01  -5.942609533668e-02  -1.425467729568e-01 
  1.208690851927e-01  -1.310770493001e-02  -1.347112655640e-01   1.465567052364e-01   2.047773078084e-02  -1.304999440908e-01   2.139395326376e-01   5.411706492305e-02  -1.433911025524e-01 
  2.139395326376e-01   5.411706492305e-02  -1.433911025524e-01   0.000000000000e+00  -1.199192553759e-01  -1.910444647074e-01   0.000000000000e+00  -1.199192553759e-01  -1.910444647074e-01 
  1.024721041322e-01  -5.966127663851e-02  -1.737440526485e-01   2.578066289425e-02  -2.555609680712e-02  -1.537187248468e-01   2.919808216393e-02  -1.390926633030e-02  -1.659211963415e-01 
  1.261507719755e-01  -1.525638103485e-01  -1.638785451651e-01   8.509159088135e-02  -9.314481914043e-02  -1.822793632746e-01   1.740018427372e-01  -5.833494290709e-02  -1.385789960623e-01 
  2.362018078566e-01  -8.608269505203e-03  -1.364101469517e-01   2.362018078566e-01  -8.608269505203e-03  -1.364101469517e-01   0.000000000000e+00  -2.149231433868e-01  -2.356102764606e-01 
  0.000000000000e+00  -2.149231433868e-01  -2.356102764606e-01  -1.397458277643e-02  -7.487755268812e-02  -2.396516650915e-01   6.785604357719e-02  -3.284592181444e-02  -1.726412028074e-01 
  8.175252377987e-02   1.326480600983e-02  -1.586121618748e-01   1.546311527491e-01   1.611747033894e-02  -1.390756964684e-01   1.293019950390e-01  -6.191499065608e-03  -1.483989804983e-01 
  1.221486404538e-01  -1.481890678406e-01  -1.613927334547e-01   1.832955926657e-01  -1.259400248528e-01  -1.961670070887e-01   1.832955926657e-01  -1.259400248528e-01  -1.961670070887e-01 
  0.000000000000e+00   0.000000000000e+00  -1.908568441868e-01   0.000000000000e+00   0.000000000000e+00  -1.908568441868e-01  -5.038294196129e-02   0.000000000000e+00  -1.991627663374e-01 
  6.700138002634e-02   0.000000000000e+00  -1.660383194685e-01   8.885182440281e-02   0.000000000000e+00  -1.935385614634e-01   1.843428462744e-01   0.000000000000e+00  -1.347861886024e-01 
  2.088773548603e-01   0.000000000000e+00  -1.182548999786e-01   1.942333728075e-01   0.000000000000e+00  -1.197533309460e-01   2.986547350883e-01   0.000000000000e+00  -1.259745806456e-01 
  2.986547350883e-01   0.000000000000e+00  -1.259745806456e-01   0.000000000000e+00   0.000000000000e+00  -1.908568441868e-01   0.000000000000e+00   0.000000000000e+00  -1.908568441868e-01 
 -5.038294196129e-02   0.000000000000e+00  -1.991627663374e-01   6.700138002634e-02   0.000000000000e+00  -1.660383194685e-01   8.885182440281e-02   0.000000000000e+00  -1.935385614634e-01 
  1.843428462744e-01   0.000000000000e+00  -1.347861886024e-01   2.088773548603e-01   0.000000000000e+00  -1.182548999786e-01   1.942333728075e-01   0.000000000000e+00  -1.197533309460e-01 
  2.986547350883e-01   0.000000000000e+00  -1.259745806456e-01   2.986547350883e-01   0.000000000000e+00  -1.259745806456e-01   0.000000000000e+00  -7.443915307522e-02  -1.060794830322e+00 
  0.000000000000e+00  -7.443915307522e-02  -1.060794830322e+00   4.842246770859e-01   5.572772026062e-02  -1.286153197289e+00   9.033160209656e-01   6.963469833136e-02  -5.429185032845e-01 
  8.376433253288e-01   5.639000330120e-03  -4.534098505974e-01   3.689870238304e-01  -4.156840741634e-01  -8.826152980328e-02   8.467519283295e-01  -1.658194884658e-02  -4.430507495999e-02 
  8.467519283295e-01   1.470640674233e-02  -3.402767702937e-02   0.000000000000e+00  -4.122117161751e-02  -1.700327545404e-02   0.000000000000e+00  -4.122117161751e-02  -1.700327545404e-02 
  0.000000000000e+00  -7.443915307522e-02  -1.060794830322e+00   0.000000000000e+00  -7.443915307522e-02  -1.060794830322e+00   4.842246770859e-01   5.572772026062e-02  -1.286153197289e+00 
  9.033160209656e-01   6.963469833136e-02  -5.429185032845e-01   8.376433253288e-01   5.639000330120e-03  -4.534098505974e-01   3.689870238304e-01  -4.156840741634e-01  -8.826152980328e-02 
  8.467519283295e-01  -1.658194884658e-02  -4.430507495999e-02   8.467519283295e-01   1.470640674233e-02  -3.402767702937e-02   0.000000000000e+00  -4.122117161751e-02  -1.700327545404e-02 
  0.000000000000e+00  -4.122117161751e-02  -1.700327545404e-02   0.000000000000e+00   3.500940650702e-02  -9.676753878593e-01   0.000000000000e+00   3.500940650702e-02  -9.676753878593e-01 
  3.773226439953e-01   1.121650263667e-01  -3.086936473846e-01   1.658486127853e-01   1.508477777243e-01  -4.116477668285e-01   3.642661273479e-01  -6.597092747688e-02   8.554461598396e-02 
  1.086084127426e+00  -6.927458643913e-01   5.103366076946e-02   1.388829469681e+00   2.986462228000e-02  -6.172695755959e-02   1.202191263437e-01   7.622095942497e-02  -6.863512098789e-02 
  1.257489025593e-01  -2.069185487926e-02  -1.362069368362e+00   1.257489025593e-01  -2.069185487926e-02  -1.362069368362e+00   0.000000000000e+00  -4.909292608500e-02  -7.644936442375e-01 
  0.000000000000e+00  -4.909292608500e-02  -7.644936442375e-01   1.400598734617e-01  -1.008957251906e-01  -7.743901610374e-01   1.773027330637e-01   3.277282463387e-03  -7.749193310738e-01 
  8.117885142565e-02   4.814627394080e-02  -7.228862643242e-01   1.252736002207e-01  -7.577099800110e-01  -5.208994150162e-01   1.101796478033e-01  -3.046469390392e-02  -2.207588404417e-02 
  1.740264892578e-01   7.477392256260e-02  -6.456667929888e-02   1.886473596096e-01  -2.065969165415e-03  -2.428045272827e+00   1.886473596096e-01  -2.065969165415e-03  -2.428045272827e+00 
  0.000000000000e+00   2.410144507885e-01  -6.398406624794e-01   0.000000000000e+00   2.410144507885e-01  -6.398406624794e-01   1.667153835297e-01   7.386527955532e-02  -4.582777321339e-01 
  1.630281656981e-01   3.472421690822e-02  -7.898502349854e-01  -1.236675865948e-02   3.512627780437e-01  -7.632759213448e-01  -9.275360032916e-03   1.492392155342e-03  -6.369215846062e-01 
  1.017266586423e-01  -7.063398603350e-03  -5.246460810304e-02   1.470082998276e-01  -3.400016948581e-02  -4.552237316966e-02   1.433825194836e-01  -4.172565788031e-02  -2.417310953140e+00 
  1.433825194836e-01  -4.172565788031e-02  -2.417310953140e+00   0.000000000000e+00   2.426651539281e-03  -7.457250356674e-01   0.000000000000e+00   2.426651539281e-03  -7.457250356674e-01 
  1.846486181021e-01  -2.035523205996e-01  -3.590958118439e-01   4.057144224644e-01  -9.238863363862e-03  -1.085466504097e+00   1.251277178526e-01   1.233750507236e-01  -4.865276217461e-01 
  1.129858270288e-01   1.625502482057e-02  -4.825047850609e-01   1.348010152578e-01  -1.027620118111e-02  -6.528873741627e-02   1.466495096684e-01   1.986084692180e-02  -6.950005888939e-02 
  2.139244824648e-01   5.410614237189e-02  -5.660889297724e-02   2.139244824648e-01   5.410614237189e-02  -5.660889297724e-02   0.000000000000e+00   9.020002186298e-02  -1.146755456924e+00 
  0.000000000000e+00   9.020002186298e-02  -1.146755456924e+00   4.469462856650e-02  -2.278614491224e-01  -1.084632992744e+00   4.475625753403e-01   1.186621785164e-01  -1.252754807472e+00 
  1.202001869678e-01   3.002462983131e-01  -5.873207449913e-01   1.912510544062e-01   6.635662168264e-02  -5.622709989548e-01   3.371188938618e-01  -5.275032669306e-02  -9.421578049660e-01 
  1.671375036240e-01  -5.821796879172e-02  -6.142100691795e-02   2.323569953442e-01  -8.714384399354e-03  -6.358984857798e-02   2.323569953442e-01  -8.714384399354e-03  -6.358984857798e-02 
  0.000000000000e+00  -6.097827106714e-02  -7.205815911293e-01   0.000000000000e+00  -6.097827106714e-02  -7.205815911293e-01   1.798750758171e-01  -1.247310936451e-01  -9.122048616409e-01 
  4.133685827255e-01  -7.361322641373e-02  -1.151091933250e+00   7.220968604088e-03  -1.925234496593e-02  -1.064711332321e+00   1.993888169527e-01  -1.067143771797e-02  -1.151641964912e+00 
  9.413935542107e-01  -7.014712318778e-03  -1.070618510246e+00   0.000000000000e+00  -1.242353618145e-01  -3.860725834966e-02   0.000000000000e+00  -1.258404254913e-01  -8.489055633545e-01 
  0.000000000000e+00  -1.258404254913e-01  -8.489055633545e-01   0.000000000000e+00   0.000000000000e+00  -8.819701671600e-01   0.000000000000e+00   0.000000000000e+00  -8.819701671600e-01 
 -1.001568417996e-02   0.000000000000e+00  -1.008661508560e+00   1.242837533355e-01   0.000000000000e+00  -1.135477781296e+00   9.359177947044e-02   0.000000000000e+00  -1.218990206718e+00 
  1.809687018394e-01   0.000000000000e+00  -1.359890937805e+00   4.315656721592e-01  -1.079173176549e-03  -1.111648440361e+00   1.830971390009e-01  -3.543763887137e-03  -8.024667203426e-02 
  2.936388552189e-01  -1.310239604209e-04  -9.184142351151e-01   2.936388552189e-01  -1.310239604209e-04  -9.184142351151e-01   0.000000000000e+00   0.000000000000e+00  -8.819701671600e-01 
  0.000000000000e+00   0.000000000000e+00  -8.819701671600e-01  -1.001568417996e-02   0.000000000000e+00  -1.008661508560e+00   1.242837533355e-01   0.000000000000e+00  -1.135477781296e+00 
  9.359177947044e-02   0.000000000000e+00  -1.218990206718e+00   1.809687018394e-01   0.000000000000e+00  -1.359890937805e+00   4.315656721592e-01  -1.079173176549e-03  -1.111648440361e+00 
  1.830971390009e-01  -3.543763887137e-03  -8.024667203426e-02   2.936388552189e-01  -1.310239604209e-04  -9.184142351151e-01   2.936388552189e-01  -1.310239604209e-04  -9.184142351151e-01 
  0.000000000000e+00   5.653556436300e-02  -8.409505486488e-01   0.000000000000e+00   5.653556436300e-02  -8.409505486488e-01   1.867309510708e-01   1.992768049240e-01  -2.998687624931e-01 
  5.659720301628e-01   1.240150034428e-01  -1.015156507492e+00   6.712961196899e-01  -2.293180376291e-01  -5.450165867805e-01   9.583569765091e-01   0.000000000000e+00  -9.940609931946e-01 
  7.969447374344e-01  -4.980714619160e-02  -1.256895661354e+00   8.965590596199e-01   3.202368505299e-03  -1.207088470459e+00   0.000000000000e+00  -2.221792377532e-02  -1.000000014901e-01 
  0.000000000000e+00  -2.221792377532e-02  -1.000000014901e-01   0.000000000000e+00   5.653556436300e-02  -8.409505486488e-01   0.000000000000e+00   5.653556436300e-02  -8.409505486488e-01 
  1.867309510708e-01   1.992768049240e-01  -2.998687624931e-01   5.659720301628e-01   1.240150034428e-01  -1.015156507492e+00   6.712961196899e-01  -2.293180376291e-01  -5.450165867805e-01 
  9.583569765091e-01   0.000000000000e+00  -9.940609931946e-01   7.969447374344e-01  -4.980714619160e-02  -1.256895661354e+00   8.965590596199e-01   3.202368505299e-03  -1.207088470459e+00 
  0.000000000000e+00  -2.221792377532e-02  -1.000000014901e-01   0.000000000000e+00  -2.221792377532e-02  -1.000000014901e-01   0.000000000000e+00   7.332415878773e-02  -5.560983419418e-01 
  0.000000000000e+00   7.332415878773e-02  -5.560983419418e-01   3.070845827460e-02   8.859152346849e-02  -1.883911341429e-01  -9.512768127024e-03   1.132539510727e-01  -5.433791875839e-01 
  0.000000000000e+00  -6.549805998802e-01  -1.000000014901e-01   1.375212788582e+00  -8.638762831688e-01  -7.534579038620e-01   1.390710473061e+00   4.980714619160e-02  -9.934031367302e-01 
  1.112212896347e+00   3.997358307242e-02  -6.402816176414e-01   3.918722569942e-01   1.369858044200e-03  -1.137719392776e+00   3.918722569942e-01   1.369858044200e-03  -1.137719392776e+00 
  0.000000000000e+00  -2.184698823839e-03  -5.441389083862e-01   0.000000000000e+00  -2.184698823839e-03  -5.441389083862e-01   5.555465444922e-02   1.936914026737e-02  -5.363889932632e-01 
  1.221291199327e-01   1.791939139366e-02  -5.920701026917e-01  -1.308922469616e-01  -7.569967508316e-01  -8.338568806648e-01  -2.440914958715e-01  -8.483787178993e-01  -8.589125275612e-01 
  1.175106763840e+00  -3.234916031361e-01  -5.208703875542e-01   7.445172667503e-01  -7.476678490639e-02  -2.249324023724e-01   2.870563268661e-01  -1.744064316154e-02  -2.229526519775e+00 
  2.870563268661e-01  -1.744064316154e-02  -2.229526519775e+00   0.000000000000e+00   4.257268011570e-01  -3.687324821949e-01   0.000000000000e+00   4.257268011570e-01  -3.687324821949e-01 
  5.905041471124e-02   1.253733932972e-01  -3.898206651211e-01   1.571584343910e-01   3.832990825176e-01  -8.402515649796e-01  -2.165534049273e-01   5.290085673332e-01  -8.962995409966e-01 
 -2.660356760025e-01   4.990399479866e-01  -9.193514585495e-01  -1.234591100365e-02   1.531458646059e-01  -3.720733523369e-01   1.929605603218e-01   7.972057908773e-03  -9.293239563704e-02 
  1.537608057261e-01  -3.724300116301e-02  -2.367849588394e+00   1.537608057261e-01  -3.724300116301e-02  -2.367849588394e+00   0.000000000000e+00  -1.357870455831e-02  -2.494893372059e-01 
  0.000000000000e+00  -1.357870455831e-02  -2.494893372059e-01   4.831800609827e-02  -1.665947958827e-02  -4.435656964779e-01   7.295633852482e-02   3.953900039196e-01  -8.459739685059e-01 
 -2.513710558414e-01   4.861973822117e-01  -6.116085648537e-01  -2.026453763247e-01   3.804385662079e-01  -5.486932396889e-01  -1.590407192707e-01   1.560617387295e-01  -2.317990064621e-01 
  1.318120658398e-01   4.326068237424e-02  -8.411998301744e-02   2.129231393337e-01   5.373185127974e-02  -5.679402127862e-02   2.129231393337e-01   5.373185127974e-02  -5.679402127862e-02 
  0.000000000000e+00   1.716158837080e-01  -4.617376923561e-01   0.000000000000e+00   1.716158837080e-01  -4.617376923561e-01   4.724537953734e-02  -3.482284769416e-02  -5.281627178192e-01 
  2.742498815060e-01   1.500069499016e-01  -8.530175089836e-01   3.271822035313e-01   2.839691340923e-01  -4.922007322311e-01   1.696464717388e-01   3.183961808681e-01  -5.693428516388e-01 
  2.220897078514e-01   1.856067031622e-02  -8.779830932617e-01   1.528900861740e-01  -4.739290103316e-02  -1.555051505566e-01   2.213023006916e-01  -9.431255050004e-03  -6.492253392935e-02 
  2.213023006916e-01  -9.431255050004e-03  -6.492253392935e-02   0.000000000000e+00   5.861952155828e-02  -2.266802340746e-01   0.000000000000e+00   5.861952155828e-02  -2.266802340746e-01 
  1.160703375936e-01  -1.037766113877e-01  -6.622202396393e-01   3.430107235909e-01   4.605279490352e-02  -6.626854538918e-01   3.965967595577e-01   8.504121750593e-02  -4.921045005322e-01 
  1.626440733671e-01   1.176210306585e-02  -6.579461097717e-01   0.000000000000e+00  -2.387983549852e-04  -1.129903316498e+00   0.000000000000e+00  -9.124627336860e-03  -1.000000014901e-01 
  0.000000000000e+00  -9.945906698704e-03  -1.000000014901e-01   0.000000000000e+00  -9.945906698704e-03  -1.000000014901e-01   0.000000000000e+00   0.000000000000e+00  -3.080224096775e-01 
  0.000000000000e+00   0.000000000000e+00  -3.080224096775e-01   1.650081202388e-02   0.000000000000e+00  -5.072064399719e-01  -1.646928787231e-01   0.000000000000e+00  -3.482481837273e-01 
  2.734192013741e-01   0.000000000000e+00   3.137553632259e-01   1.245259344578e-01   0.000000000000e+00  -3.936006426811e-01   2.387987226248e-01  -5.650238017552e-04  -8.689612150192e-01 
  1.831674277782e-01  -1.303431391716e-02  -1.989967823029e-01   2.804560959339e-01  -1.902704872191e-02  -8.992354273796e-01   2.804560959339e-01  -1.902704872191e-02  -8.992354273796e-01 
  0.000000000000e+00   0.000000000000e+00  -3.080224096775e-01   0.000000000000e+00   0.000000000000e+00  -3.080224096775e-01   1.650081202388e-02   0.000000000000e+00  -5.072064399719e-01 
 -1.646928787231e-01   0.000000000000e+00  -3.482481837273e-01   2.734192013741e-01   0.000000000000e+00   3.137553632259e-01   1.245259344578e-01   0.000000000000e+00  -3.936006426811e-01 
  2.387987226248e-01  -5.650238017552e-04  -8.689612150192e-01   1.831674277782e-01  -1.303431391716e-02  -1.989967823029e-01   2.804560959339e-01  -1.902704872191e-02  -8.992354273796e-01 
  2.804560959339e-01  -1.902704872191e-02  -8.992354273796e-01   0.000000000000e+00   6.447788327932e-02  -4.984013140202e-01   0.000000000000e+00   6.447788327932e-02  -4.984013140202e-01 
  1.202175975777e-03   2.081961743534e-02  -3.639864325523e-01   4.586878716946e-01   3.798355907202e-02   1.201421096921e-01   2.892522215843e-01  -3.809078335762e-01  -6.862786412239e-01 
  5.810082554817e-01  -2.108206897974e-01  -9.658388495445e-01   5.217864513397e-01   0.000000000000e+00  -1.157281279564e+00   0.000000000000e+00   2.097852993757e-03  -1.207088470459e+00 
  0.000000000000e+00  -1.108557730913e-02  -1.000000014901e-01   0.000000000000e+00  -1.108557730913e-02  -1.000000014901e-01   0.000000000000e+00   6.447788327932e-02  -4.984013140202e-01 
  0.000000000000e+00   6.447788327932e-02  -4.984013140202e-01   1.202175975777e-03   2.081961743534e-02  -3.639864325523e-01   4.586878716946e-01   3.798355907202e-02   1.201421096921e-01 
  2.892522215843e-01  -3.809078335762e-01  -6.862786412239e-01   5.810082554817e-01  -2.108206897974e-01  -9.658388495445e-01   5.217864513397e-01   0.000000000000e+00  -1.157281279564e+00 
  0.000000000000e+00   2.097852993757e-03  -1.207088470459e+00   0.000000000000e+00  -1.108557730913e-02  -1.000000014901e-01   0.000000000000e+00  -1.108557730913e-02  -1.000000014901e-01 
  0.000000000000e+00   8.657040446997e-02  -6.797678470612e-01   0.000000000000e+00   8.657040446997e-02  -6.797678470612e-01  -5.423843115568e-02   4.604853689671e-02  -5.895637869835e-01 
 -2.212487533689e-02   6.680823862553e-02  -5.704481601715e-01  -3.004114888608e-02  -5.774971246719e-01  -4.717107415199e-01   0.000000000000e+00  -5.656087994576e-01  -7.379603385925e-01 
  9.105448126793e-01   3.261040896177e-02  -9.655796885490e-01   7.686625719070e-01   2.845001779497e-02  -9.061145782471e-01   4.430451393127e-01   9.892065078020e-03  -9.094905853271e-01 
  4.430451393127e-01   9.892065078020e-03  -9.094905853271e-01   0.000000000000e+00   6.154638528824e-02  -2.482399493456e-01   0.000000000000e+00   6.154638528824e-02  -2.482399493456e-01 
  1.821668702178e-04   4.018766060472e-02  -3.985140323639e-01   1.249471753836e-01   3.553004562855e-02  -5.438575148582e-01  -1.760546118021e-01  -4.473572373390e-01  -8.950931429863e-01 
 -2.533978521824e-01   0.000000000000e+00  -8.794330358505e-01   6.009703874588e-01  -1.153545081615e-01  -7.515828013420e-01   8.150678873062e-01  -5.966589972377e-02  -5.484701395035e-01 
  4.360987842083e-01  -2.551673538983e-02  -1.768990635872e+00   4.360987842083e-01  -2.551673538983e-02  -1.768990635872e+00   0.000000000000e+00   4.746068120003e-01  -3.649648725986e-01 
  0.000000000000e+00   4.746068120003e-01  -3.649648725986e-01   1.229114234447e-01   3.740792721510e-02  -4.626116752625e-01   3.375822901726e-01   1.209916621447e-01  -1.145686388016e+00 
 -2.829794585705e-01   0.000000000000e+00  -9.652016758919e-01  -2.875791192055e-01   3.712672889233e-01  -9.895391464233e-01  -1.399594396353e-01   2.222693860531e-01  -6.965809464455e-01 
  4.539368301630e-02   7.310602813959e-02  -2.701189219952e-01   1.207509115338e-01  -1.383014302701e-02  -1.981513857841e+00   1.207509115338e-01  -1.383014302701e-02  -1.981513857841e+00 
  0.000000000000e+00   4.772847890854e-02  -3.442788124084e-01   0.000000000000e+00   4.772847890854e-02  -3.442788124084e-01   7.555776834488e-02  -8.527969568968e-02  -3.884651362896e-01 
  0.000000000000e+00   0.000000000000e+00  -1.481975317001e+00  -3.459414243698e-01   7.883445620537e-01  -1.614805459976e+00  -3.150887191296e-01   7.786222696304e-01  -2.088891983032e+00 
  0.000000000000e+00   5.382863283157e-01  -1.000000014901e-01  -1.628511957824e-02   2.871735692024e-01  -9.357754886150e-02  -3.541256859899e-02   7.646387070417e-02  -6.867356598377e-02 