# vtk DataFile Version 2.0
Written using VisIt writer
ASCII
DATASET RECTILINEAR_GRID
DIMENSIONS 10 10 10
X_COORDINATES 10 float
  0.000000000000e+00   5.000000000000e-01   1.000000000000e+00   1.500000000000e+00   2.000000000000e+00   2.500000000000e+00   3.000000000000e+00   3.500000000000e+00   4.000000000000e+00 
  4.500000000000e+00 
Y_COORDINATES 10 float
  0.000000000000e+00   5.000000000000e-01   1.000000000000e+00   1.500000000000e+00   2.000000000000e+00   2.500000000000e+00   3.000000000000e+00   3.500000000000e+00   4.000000000000e+00 
  4.500000000000e+00 
Z_COORDINATES 10 float
  0.000000000000e+00   5.000000000000e-01   1.000000000000e+00   1.500000000000e+00   2.000000000000e+00   2.500000000000e+00   3.000000000000e+00   3.500000000000e+00   4.000000000000e+00 
  4.500000000000e+00 
CELL_DATA 729
POINT_DATA 1000
VECTORS velocity float
  0.000000000000e+00  -1.103321760893e-01  -2.285126149654e-01   3.251200000000e+04   0.000000000000e+00   0.000000000000e+00   0.000000000000e+00   0.000000000000e+00   0.000000000000e+00 
  1.345338970423e-01  -6.735806912184e-02  -1.620861887932e-01   0.000000000000e+00   0.000000000000e+00   0.000000000000e+00   0.000000000000e+00   1.431655808000e+09   1.070945600000e+09 
  1.077248901129e-01  -7.614836841822e-02  -1.598642766476e-01   1.071994176000e+09   0.000000000000e+00   0.000000000000e+00   0.000000000000e+00   0.000000000000e+00   0.000000000000e+00 
  2.586500346661e-01  -1.179548054934e-01  -1.808994114399e-01   0.000000000000e+00  -1.103321760893e-01  -2.285126149654e-01   1.070945600000e+09   0.000000000000e+00   0.000000000000e+00 
  8.300606906414e-02  -1.066329106688e-01  -2.033473998308e-01   1.345338970423e-01  -6.735806912184e-02  -1.620861887932e-01   1.431655808000e+09   1.070945600000e+09   0.000000000000e+00 
  1.063568443060e-01  -5.379220098257e-02  -1.440168619156e-01   1.077248901129e-01  -7.614836841822e-02  -1.598642766476e-01   0.000000000000e+00   0.000000000000e+00   1.071644672000e+09 
  2.586500346661e-01  -1.179548054934e-01  -1.808994114399e-01   2.586500346661e-01  -1.179548054934e-01  -1.808994114399e-01   0.000000000000e+00   7.328177988529e-02  -1.698705703020e-01 
  0.000000000000e+00   7.328177988529e-02  -1.698705703020e-01  -1.913274079561e-02  -1.240655481815e-01  -1.798229664564e-01   1.900489628315e-02  -2.953109443188e-01  -1.788714230061e-01 
  5.497014150023e-03  -2.373234182596e-01  -1.852162033319e-01   5.762156099081e-02  -1.129970848560e-01  -1.416312158108e-01   1.119463816285e-01   8.149445056915e-03  -1.352806985378e-01 
  8.815070241690e-02   5.342281609774e-02  -1.311568766832e-01   1.989299505949e-01   1.501795370132e-02  -1.401773989201e-01   1.989299505949e-01   1.501795370132e-02  -1.401773989201e-01 
  0.000000000000e+00  -9.279076009989e-03  -1.623438000679e-01   0.000000000000e+00  -9.279076009989e-03  -1.623438000679e-01   4.404889047146e-02   2.948739752173e-02  -1.529527008533e-01 
 -3.400942950975e-04   1.795588247478e-02  -1.366664320230e-01   3.087760508060e-02  -7.088681682944e-03  -1.390221565962e-01   6.800588220358e-02  -1.460886448622e-01  -1.447393000126e-01 
  4.910943284631e-02  -3.492257744074e-02  -1.785725057125e-01   1.501988172531e-01   9.035543352365e-02  -1.324977427721e-01   1.881651580334e-01   2.987647056580e-02  -1.291966438293e-01 
  1.881651580334e-01   2.987647056580e-02  -1.291966438293e-01   0.000000000000e+00  -9.143353998661e-02  -1.812894195318e-01   0.000000000000e+00  -9.143353998661e-02  -1.812894195318e-01 
 -9.293845854700e-03  -2.216998860240e-02  -1.999149173498e-01   1.195365488529e-01   2.210858091712e-02  -1.420705914497e-01   8.040320873260e-02   4.906675964594e-02  -1.307476758957e-01 
  9.074250608683e-02   3.332038223743e-02  -1.241142526269e-01   7.876377552748e-02   3.119581937790e-02  -1.456021666527e-01   9.346485137939e-02  -1.598609425128e-02  -1.541671901941e-01 
  2.304402142763e-01  -5.761662498116e-02  -1.783760190010e-01   2.304402142763e-01  -5.761662498116e-02  -1.783760190010e-01   0.000000000000e+00  -1.668395102024e-02  -1.621559709311e-01 
  0.000000000000e+00  -1.668395102024e-02  -1.621559709311e-01   3.770061582327e-02   2.510441467166e-02  -1.633828431368e-01   6.975412368774e-02  -4.395947605371e-02  -1.597905308008e-01 
  1.211535837501e-02  -6.712482124567e-02  -1.875740289688e-01   1.088263839483e-01   9.662722237408e-03  -1.398336738348e-01   1.205774024129e-01   6.587896496058e-02  -1.323004066944e-01 
  1.053356751800e-01   3.155137225986e-02  -1.316802948713e-01   2.200388163328e-01  -4.364271461964e-02  -1.469068527222e-01   2.200388163328e-01  -4.364271461964e-02  -1.469068527222e-01 
  0.000000000000e+00  -1.389754116535e-01  -1.665466427803e-01   0.000000000000e+00  -1.389754116535e-01  -1.665466427803e-01   1.324793100357e-01  -6.641658488661e-03  -1.447450369596e-01 
  2.375285699964e-02   3.108401969075e-02  -1.378883123398e-01   7.143292110413e-03   3.361738845706e-02  -1.514449715614e-01   4.299403354526e-02  -7.372092455626e-02  -1.608561277390e-01 
  6.504330039024e-02   2.070315741003e-02  -1.766604483128e-01   2.105126529932e-01   8.856381289661e-03  -1.366400718689e-01   2.130540162325e-01  -5.872108414769e-02  -1.506209373474e-01 
  2.130540162325e-01  -5.872108414769e-02  -1.506209373474e-01   0.000000000000e+00  -1.937910169363e-01  -1.955719590187e-01   0.000000000000e+00  -1.937910169363e-01  -1.955719590187e-01 
 -2.451225742698e-02  -7.037648931146e-03  -1.934982836246e-01   5.445164814591e-02   4.859863780439e-03  -1.449668258429e-01   4.354908689857e-02   8.207627572119e-03  -1.401649117470e-01 
  2.035452052951e-02   2.197000943124e-02  -1.333257704973e-01   5.246766656637e-02  -1.976253651083e-02  -1.507093310356e-01   1.557711511850e-01  -7.956564426422e-02  -1.607595235109e-01 
  1.572926789522e-01  -5.855944007635e-02  -2.018484324217e-01   1.572926789522e-01  -5.855944007635e-02  -2.018484324217e-01   0.000000000000e+00   0.000000000000e+00  -1.581261456013e-01 
  0.000000000000e+00   0.000000000000e+00  -1.581261456013e-01  -6.299740821123e-02   0.000000000000e+00  -1.728889197111e-01  -1.002549827099e-01   0.000000000000e+00  -1.635263562202e-01 
  2.531332708895e-02   0.000000000000e+00  -2.278974652290e-01   1.803580820560e-01   0.000000000000e+00  -1.539011299610e-01   1.856732070446e-01   0.000000000000e+00  -1.366828233004e-01 
  2.578301131725e-01   0.000000000000e+00  -1.253406852484e-01   2.686525583267e-01   0.000000000000e+00  -1.331035643816e-01   2.686525583267e-01   0.000000000000e+00  -1.331035643816e-01 
  0.000000000000e+00   0.000000000000e+00  -1.581261456013e-01   0.000000000000e+00   0.000000000000e+00  -1.581261456013e-01  -6.299740821123e-02   0.000000000000e+00  -1.728889197111e-01 
 -1.002549827099e-01   0.000000000000e+00  -1.635263562202e-01   2.531332708895e-02   0.000000000000e+00  -2.278974652290e-01   1.803580820560e-01   0.000000000000e+00  -1.539011299610e-01 
  1.856732070446e-01   0.000000000000e+00  -1.366828233004e-01   2.578301131725e-01   0.000000000000e+00  -1.253406852484e-01   2.686525583267e-01   0.000000000000e+00  -1.331035643816e-01 
  2.686525583267e-01   0.000000000000e+00  -1.331035643816e-01   0.000000000000e+00  -1.103321760893e-01  -2.285126149654e-01   0.000000000000e+00  -1.103321760893e-01  -2.285126149654e-01 
  8.300606906414e-02  -1.066329106688e-01  -2.033473998308e-01   1.345338970423e-01  -6.735806912184e-02  -1.620861887932e-01   9.867740422487e-02  -5.972766876221e-02  -1.610538512468e-01 
  1.063568443060e-01  -5.379220098257e-02  -1.440168619156e-01   1.077248901129e-01  -7.614836841822e-02  -1.598642766476e-01   1.977186948061e-01  -7.717201858759e-02  -1.622357368469e-01 
  2.586500346661e-01  -1.179548054934e-01  -1.808994114399e-01   2.586500346661e-01  -1.179548054934e-01  -1.808994114399e-01   0.000000000000e+00  -1.103321760893e-01  -2.285126149654e-01 
  0.000000000000e+00  -1.103321760893e-01  -2.285126149654e-01   8.300606906414e-02  -1.066329106688e-01  -2.033473998308e-01   1.345338970423e-01  -6.735806912184e-02  -1.620861887932e-01 
  9.867740422487e-02  -5.972766876221e-02  -1.610538512468e-01   1.063568443060e-01  -5.379220098257e-02  -1.440168619156e-01   1.077248901129e-01  -7.614836841822e-02  -1.598642766476e-01 
  1.977186948061e-01  -7.717201858759e-02  -1.622357368469e-01   2.586500346661e-01  -1.179548054934e-01  -1.808994114399e-01   2.586500346661e-01  -1.179548054934e-01  -1.808994114399e-01 
  0.000000000000e+00   7.328177988529e-02  -1.698705703020e-01   0.000000000000e+00   7.328177988529e-02  -1.698705703020e-01  -1.913274079561e-02  -1.240655481815e-01  -1.798229664564e-01 
  1.900489628315e-02  -2.953109443188e-01  -1.788714230061e-01   5.497014150023e-03  -2.373234182596e-01  -1.852162033319e-01   5.762156099081e-02  -1.129970848560e-01  -1.416312158108e-01 
  1.119463816285e-01   8.149445056915e-03  -1.352806985378e-01   8.815070241690e-02   5.342281609774e-02  -1.311568766832e-01   1.989299505949e-01   1.501795370132e-02  -1.401773989201e-01 
  1.989299505949e-01   1.501795370132e-02  -1.401773989201e-01   0.000000000000e+00  -9.279076009989e-03  -1.623438000679e-01   0.000000000000e+00  -9.279076009989e-03  -1.623438000679e-01 
  4.404889047146e-02   2.948739752173e-02  -1.529527008533e-01  -3.400942950975e-04   1.795588247478e-02  -1.366664320230e-01   3.087760508060e-02  -7.088681682944e-03  -1.390221565962e-01 
  6.800588220358e-02  -1.460886448622e-01  -1.447393000126e-01   4.910943284631e-02  -3.492257744074e-02  -1.785725057125e-01   1.501988172531e-01   9.035543352365e-02  -1.324977427721e-01 
  1.881651580334e-01   2.987647056580e-02  -1.291966438293e-01   1.881651580334e-01   2.987647056580e-02  -1.291966438293e-01   0.000000000000e+00  -9.143353998661e-02  -1.812894195318e-01 
  0.000000000000e+00  -9.143353998661e-02  -1.812894195318e-01  -9.293845854700e-03  -2.216998860240e-02  -1.999149173498e-01   1.195365488529e-01   2.210858091712e-02  -1.420705914497e-01 
  8.040320873260e-02   4.906675964594e-02  -1.307476758957e-01   9.074250608683e-02   3.332038223743e-02  -1.241142526269e-01   7.876377552748e-02   3.119581937790e-02  -1.456021666527e-01 
  9.346485137939e-02  -1.598609425128e-02  -1.541671901941e-01   2.304402142763e-01  -5.761662498116e-02  -1.783760190010e-01   2.304402142763e-01  -5.761662498116e-02  -1.783760190010e-01 
  0.000000000000e+00  -1.668395102024e-02  -1.621559709311e-01   0.000000000000e+00  -1.668395102024e-02  -1.621559709311e-01   3.770061582327e-02   2.510441467166e-02  -1.633828431368e-01 
  6.975412368774e-02  -4.395947605371e-02  -1.597905308008e-01   1.211535837501e-02  -6.712482124567e-02  -1.875740289688e-01   1.088263839483e-01   9.662722237408e-03  -1.398336738348e-01 
  1.205774024129e-01   6.587896496058e-02  -1.323004066944e-01   1.053356751800e-01   3.155137225986e-02  -1.316802948713e-01   2.200388163328e-01  -4.364271461964e-02  -1.469068527222e-01 
  2.200388163328e-01  -4.364271461964e-02  -1.469068527222e-01   0.000000000000e+00  -1.389754116535e-01  -1.665466427803e-01   0.000000000000e+00  -1.389754116535e-01  -1.665466427803e-01 
  1.324793100357e-01  -6.641658488661e-03  -1.447450369596e-01   2.375285699964e-02   3.108401969075e-02  -1.378883123398e-01   7.143292110413e-03   3.361738845706e-02  -1.514449715614e-01 
  4.299403354526e-02  -7.372092455626e-02  -1.608561277390e-01   6.504330039024e-02   2.070315741003e-02  -1.766604483128e-01   2.105126529932e-01   8.856381289661e-03  -1.366400718689e-01 
  2.130540162325e-01  -5.872108414769e-02  -1.506209373474e-01   2.130540162325e-01  -5.872108414769e-02  -1.506209373474e-01   0.000000000000e+00  -1.937910169363e-01  -1.955719590187e-01 
  0.000000000000e+00  -1.937910169363e-01  -1.955719590187e-01  -2.451225742698e-02  -7.037648931146e-03  -1.934982836246e-01   5.445164814591e-02   4.859863780439e-03  -1.449668258429e-01 
  4.354908689857e-02   8.207627572119e-03  -1.401649117470e-01   2.035452052951e-02   2.197000943124e-02  -1.333257704973e-01   5.246766656637e-02  -1.976253651083e-02  -1.507093310356e-01 
  1.557711511850e-01  -7.956564426422e-02  -1.607595235109e-01   1.572926789522e-01  -5.855944007635e-02  -2.018484324217e-01   1.572926789522e-01  -5.855944007635e-02  -2.018484324217e-01 
  0.000000000000e+00   0.000000000000e+00  -1.581261456013e-01   0.000000000000e+00   0.000000000000e+00  -1.581261456013e-01  -6.299740821123e-02   0.000000000000e+00  -1.728889197111e-01 
 -1.002549827099e-01   0.000000000000e+00  -1.635263562202e-01   2.531332708895e-02   0.000000000000e+00  -2.278974652290e-01   1.803580820560e-01   0.000000000000e+00  -1.539011299610e-01 
  1.856732070446e-01   0.000000000000e+00  -1.366828233004e-01   2.578301131725e-01   0.000000000000e+00  -1.253406852484e-01   2.686525583267e-01   0.000000000000e+00  -1.331035643816e-01 
  2.686525583267e-01   0.000000000000e+00  -1.331035643816e-01   0.000000000000e+00   0.000000000000e+00  -1.581261456013e-01   0.000000000000e+00   0.000000000000e+00  -1.581261456013e-01 
 -6.299740821123e-02   0.000000000000e+00  -1.728889197111e-01  -1.002549827099e-01   0.000000000000e+00  -1.635263562202e-01   2.531332708895e-02   0.000000000000e+00  -2.278974652290e-01 
  1.803580820560e-01   0.000000000000e+00  -1.539011299610e-01   1.856732070446e-01   0.000000000000e+00  -1.366828233004e-01   2.578301131725e-01   0.000000000000e+00  -1.253406852484e-01 
  2.686525583267e-01   0.000000000000e+00  -1.331035643816e-01   2.686525583267e-01   0.000000000000e+00  -1.331035643816e-01   0.000000000000e+00  -1.432264596224e-01  -5.967745780945e-01 
  0.000000000000e+00  -1.432264596224e-01  -5.967745780945e-01   7.568291574717e-02  -2.586851119995e-01  -8.319101929665e-01   2.393907168880e-03   3.319070041180e-01  -7.520973682404e-01 
 -3.290323168039e-02   1.511635351926e-02  -8.517541885376e-01   4.904528558254e-01  -3.687337636948e-01  -8.407194614410e-01   3.141966462135e-01  -8.415773510933e-02  -7.222396731377e-01 
  0.000000000000e+00   8.700290694833e-03  -3.776426613331e-02   1.119762420654e+00   1.614208333194e-02  -9.564200043678e-01   1.119762420654e+00   1.614208333194e-02  -9.564200043678e-01 
  0.000000000000e+00  -1.432264596224e-01  -5.967745780945e-01   0.000000000000e+00  -1.432264596224e-01  -5.967745780945e-01   7.568291574717e-02  -2.586851119995e-01  -8.319101929665e-01 
  2.393907168880e-03   3.319070041180e-01  -7.520973682404e-01  -3.290323168039e-02   1.511635351926e-02  -8.517541885376e-01   4.904528558254e-01  -3.687337636948e-01  -8.407194614410e-01 
  3.141966462135e-01  -8.415773510933e-02  -7.222396731377e-01   0.000000000000e+00   8.700290694833e-03  -3.776426613331e-02   1.119762420654e+00   1.614208333194e-02  -9.564200043678e-01 
  1.119762420654e+00   1.614208333194e-02  -9.564200043678e-01   0.000000000000e+00   1.414067447186e-01  -6.752973794937e-01   0.000000000000e+00   1.414067447186e-01  -6.752973794937e-01 
  1.115400940180e-01  -4.515517211985e-04  -3.880076408386e-01   3.588164597750e-02   4.831288754940e-01  -8.107922077179e-01  -1.357415318489e-02   5.741317868233e-01  -5.004365444183e-01 
  2.740350365639e-01  -3.295669555664e-01  -4.469352662563e-01   1.991139501333e-01  -1.099644005299e-01  -4.486045837402e-01   7.052056491375e-02   3.379389643669e-02  -6.884311884642e-02 
  5.334790945053e-01   1.199008524418e-02  -5.982260406017e-02   5.334790945053e-01   1.199008524418e-02  -5.982260406017e-02   0.000000000000e+00  -1.802571415901e-01  -7.773188948631e-01 
  0.000000000000e+00  -1.802571415901e-01  -7.773188948631e-01   2.545336186886e-01  -3.951358795166e-02  -8.520398139954e-01   4.074291139841e-02  -1.008066930808e-03  -7.914839386940e-01 
  3.622167184949e-02   1.095100939274e-01  -3.959084153175e-01   9.540546685457e-02  -1.863242983818e-01  -5.526069924235e-02   5.091642215848e-02  -5.598528683186e-02  -2.142749913037e-02 
  1.460256129503e-01   7.723194360733e-02  -6.750225275755e-02   1.881649643183e-01   0.000000000000e+00  -7.080335915089e-02   1.881649643183e-01   0.000000000000e+00  -7.080335915089e-02 
  0.000000000000e+00  -1.474399119616e-01  -7.987948060036e-01   0.000000000000e+00  -1.474399119616e-01  -7.987948060036e-01   1.567767411470e-01   1.012772098184e-01  -8.235746622086e-01 
  1.958784908056e-01   4.578367993236e-02  -5.401327610016e-01   2.943519949913e-01   5.283180251718e-02  -4.248768389225e-01   3.081032633781e-01   3.541988879442e-02  -4.315102696419e-01 
  8.057091385126e-02   3.137301653624e-02  -5.439782887697e-02   9.503334015608e-02  -1.548885274678e-02  -4.583280161023e-02   2.448840588331e-01   0.000000000000e+00  -2.162397652864e-02 
  2.448840588331e-01   0.000000000000e+00  -2.162397652864e-02   0.000000000000e+00   2.311785472557e-03  -1.097846627235e+00   0.000000000000e+00   2.311785472557e-03  -1.097846627235e+00 
  2.452551126480e-01   3.290599882603e-01  -8.314138650894e-01   3.745347261429e-01   3.087266813964e-03  -1.494580507278e+00   6.670050024986e-01   6.639719009399e-02  -3.822281062603e-01 
  6.953601837158e-01   2.459326386452e-02  -4.901047050953e-01   0.000000000000e+00   6.369989365339e-02  -5.531309843063e-01   1.308756619692e-01   2.393653243780e-02  -6.831970810890e-02 
  3.352646827698e-01   0.000000000000e+00  -5.309314653277e-02   3.352646827698e-01   0.000000000000e+00  -5.309314653277e-02   0.000000000000e+00  -1.165217906237e-01  -1.022153139114e+00 
  0.000000000000e+00  -1.165217906237e-01  -1.022153139114e+00   4.015185534954e-01   8.160167932510e-01  -1.323523998260e+00   4.308044910431e-01   4.683504253626e-02  -1.016127109528e+00 
  2.495436370373e-01   9.475242346525e-02  -2.614877462387e+00   8.889394998550e-02  -6.757685448974e-03  -1.805877923965e+00   8.042845875025e-02   1.146731059998e-02  -1.748047947884e+00 
  2.831602096558e-01  -5.194015055895e-02  -2.463666677475e+00   5.374267101288e-01  -1.557416915894e-01  -1.789479494095e+00   5.374267101288e-01  -1.557416915894e-01  -1.789479494095e+00 
  0.000000000000e+00  -2.883554697037e-01  -9.979035258293e-01   0.000000000000e+00  -2.883554697037e-01  -9.979035258293e-01   2.933170795441e-01  -1.527216285467e-01  -1.223580956459e+00 
  3.949983417988e-01  -4.406047984958e-02  -1.356897354126e+00  -1.114468798041e-01  -1.670938543975e-02  -2.400079011917e+00  -7.136921584606e-02   1.782102510333e-02  -2.039036750793e+00 
  2.035096883774e-01  -1.537086162716e-02  -2.562019109726e+00   2.958301901817e-01  -5.712490528822e-02  -2.525141954422e+00   1.569091081619e-01  -2.044614031911e-02  -2.213139772415e+00 
  1.569091081619e-01  -2.044614031911e-02  -2.213139772415e+00   0.000000000000e+00   0.000000000000e+00  -1.188608288765e+00   0.000000000000e+00   0.000000000000e+00  -1.188608288765e+00 
 -2.072274219245e-03  -2.412033645669e-04  -6.698188185692e-01   1.743799299002e-01   0.000000000000e+00  -1.511618614197e+00  -4.027835726738e-01   0.000000000000e+00  -6.952524185181e-01 
 -2.847972810268e-01   0.000000000000e+00  -7.821279168129e-01   4.216729700565e-01   0.000000000000e+00  -2.913969039917e+00   5.870935916901e-01   0.000000000000e+00  -2.842600822449e+00 
  3.394172191620e-01  -4.543586634099e-03  -6.689643114805e-02   3.394172191620e-01  -4.543586634099e-03  -6.689643114805e-02   0.000000000000e+00   0.000000000000e+00  -1.188608288765e+00 
  0.000000000000e+00   0.000000000000e+00  -1.188608288765e+00  -2.072274219245e-03  -2.412033645669e-04  -6.698188185692e-01   1.743799299002e-01   0.000000000000e+00  -1.511618614197e+00 
 -4.027835726738e-01   0.000000000000e+00  -6.952524185181e-01  -2.847972810268e-01   0.000000000000e+00  -7.821279168129e-01   4.216729700565e-01   0.000000000000e+00  -2.913969039917e+00 
  5.870935916901e-01   0.000000000000e+00  -2.842600822449e+00   3.394172191620e-01  -4.543586634099e-03  -6.689643114805e-02   3.394172191620e-01  -4.543586634099e-03  -6.689643114805e-02 
  0.000000000000e+00  -8.236847072840e-02  -9.302723407745e-01   0.000000000000e+00  -8.236847072840e-02  -9.302723407745e-01   2.555285394192e-01  -1.434454321861e-01  -4.065599739552e-01 
  2.762574255466e-01   1.401232182980e-01  -6.915173530579e-01   0.000000000000e+00   1.967245042324e-01  -5.637791156769e-01   2.767496109009e-01  -3.201834261417e-01  -5.127474069595e-01 
  2.767496109009e-01  -2.159485369921e-01  -4.355430603027e-01   0.000000000000e+00   1.501758396626e-02  -1.000000014901e-01   0.000000000000e+00   0.000000000000e+00  -1.019414067268e+00 
  0.000000000000e+00   0.000000000000e+00  -1.019414067268e+00   0.000000000000e+00  -8.236847072840e-02  -9.302723407745e-01   0.000000000000e+00  -8.236847072840e-02  -9.302723407745e-01 
  2.555285394192e-01  -1.434454321861e-01  -4.065599739552e-01   2.762574255466e-01   1.401232182980e-01  -6.915173530579e-01   0.000000000000e+00   1.967245042324e-01  -5.637791156769e-01 
  2.767496109009e-01  -3.201834261417e-01  -5.127474069595e-01   2.767496109009e-01  -2.159485369921e-01  -4.355430603027e-01   0.000000000000e+00   1.501758396626e-02  -1.000000014901e-01 
  0.000000000000e+00   0.000000000000e+00  -1.019414067268e+00   0.000000000000e+00   0.000000000000e+00  -1.019414067268e+00   0.000000000000e+00   7.769314944744e-02  -2.932449281216e-01 
  0.000000000000e+00   7.769314944744e-02  -2.932449281216e-01   9.777914732695e-02  -8.714419603348e-02  -2.905241847038e-01   1.528115272522e-01   1.801431477070e-01  -6.597132682800e-01 
  1.749918609858e-02   3.936032056808e-01  -5.382106304169e-01   2.691234350204e-01  -3.101848661900e-01  -4.757834374905e-01   2.329615801573e-01  -1.831549108028e-01  -4.512397646904e-01 
  5.289652198553e-02   1.460245624185e-02  -8.045828342438e-02   0.000000000000e+00   0.000000000000e+00  -1.000000014901e-01   0.000000000000e+00   0.000000000000e+00  -1.000000014901e-01 
  0.000000000000e+00  -1.808165907860e-01  -2.085590958595e-01   0.000000000000e+00  -1.808165907860e-01  -2.085590958595e-01   1.399073749781e-01  -1.281740367413e-01  -2.420711666346e-01 
  9.305272251368e-02  -4.240975901484e-02  -5.227006077766e-01   6.033378839493e-02   1.346322000027e-01  -4.344393312931e-01   1.076319515705e-01  -2.050749510527e-01  -8.955304324627e-02 
  5.625334754586e-02  -9.240525215864e-02  -6.553029268980e-02   1.346173733473e-01   5.951619893312e-02  -6.930945813656e-02   1.881526410580e-01   0.000000000000e+00  -1.000000014901e-01 
  1.881526410580e-01   0.000000000000e+00  -1.000000014901e-01   0.000000000000e+00  -1.515126824379e-01  -3.780159950256e-01   0.000000000000e+00  -1.515126824379e-01  -3.780159950256e-01 
  5.601767078042e-02  -6.230170652270e-02  -4.152701497078e-01   1.053962856531e-01  -1.250028517097e-02  -6.358935832977e-01   1.902170777321e-01   3.295048698783e-02  -4.556245207787e-01 
  2.040842324495e-01   3.418828919530e-02  -4.404999613762e-01   8.166924118996e-02   3.164190053940e-02  -1.136503294110e-01   1.003323718905e-01  -1.427141670138e-02  -5.148811265826e-02 
  2.407183200121e-01   0.000000000000e+00  -1.000000014901e-01   2.407183200121e-01   0.000000000000e+00  -1.000000014901e-01   0.000000000000e+00   2.192973643541e-01  -2.415420264006e-01 
  0.000000000000e+00   2.192973643541e-01  -2.415420264006e-01   9.192305803299e-02   1.336623877287e-01  -1.872985512018e-01   2.605965435505e-01   2.837260952219e-03  -9.848960042000e-01 
  0.000000000000e+00   0.000000000000e+00  -4.414469003677e-01   0.000000000000e+00   1.647040434182e-02  -4.556245207787e-01   0.000000000000e+00   5.766925960779e-02  -5.763683319092e-01 
  1.474031955004e-01   1.390353869647e-02  -8.012999594212e-02   2.248575687408e-01   0.000000000000e+00  -1.000000014901e-01   2.248575687408e-01   0.000000000000e+00  -1.000000014901e-01 
  0.000000000000e+00   1.768033802509e-01  -3.705644309521e-01   0.000000000000e+00   1.768033802509e-01  -3.705644309521e-01   1.228948608041e-01   6.369558721781e-02  -5.447487831116e-01 
  5.469971299171e-01   6.447263527662e-03  -6.005246639252e-01   7.209639549255e-01   5.855730175972e-02  -2.202136278152e+00   1.606788635254e-01   1.613615639508e-02  -1.899134516716e+00 
  9.213941544294e-02   3.183025168255e-03  -1.649601101875e+00   2.103087007999e-01  -3.550402447581e-02  -1.000000014901e-01   0.000000000000e+00   0.000000000000e+00  -1.617609381676e+00 
  0.000000000000e+00   0.000000000000e+00  -1.617609381676e+00   0.000000000000e+00  -1.056083589792e-01  -4.558539986610e-01   0.000000000000e+00  -1.056083589792e-01  -4.558539986610e-01 
  5.683469772339e-02  -2.486523091793e-01  -5.117890834808e-01   6.678107976913e-01  -1.216501295567e-01  -8.360409736633e-01   7.346558570862e-01  -8.254276961088e-02  -1.356997013092e+00 
  1.961717158556e-01   1.387557946146e-02  -1.866175055504e+00   1.402959823608e-01  -1.141624338925e-02  -2.867941617966e+00   1.879508793354e-01  -3.788314387202e-02  -2.432373285294e+00 
  1.551647782326e-01   0.000000000000e+00  -1.684650897980e+00   1.551647782326e-01   0.000000000000e+00  -1.684650897980e+00   0.000000000000e+00   0.000000000000e+00  -7.957327365875e-01 
  0.000000000000e+00   0.000000000000e+00  -7.957327365875e-01   8.819470554590e-02  -7.475358247757e-02  -7.276174426079e-01   6.217197179794e-01   0.000000000000e+00  -8.352821469307e-01 
 -1.270287781954e-01   0.000000000000e+00  -5.615504384041e-01  -3.437904119492e-01   0.000000000000e+00  -6.051236987114e-01   0.000000000000e+00   0.000000000000e+00  -2.785231351852e+00 
  0.000000000000e+00   0.000000000000e+00  -2.867941617966e+00   2.520918846130e-01  -3.374611726031e-03  -8.905519247055e-01   2.520918846130e-01  -3.374611726031e-03  -8.905519247055e-01 
  0.000000000000e+00   0.000000000000e+00  -7.957327365875e-01   0.000000000000e+00   0.000000000000e+00  -7.957327365875e-01   8.819470554590e-02  -7.475358247757e-02  -7.276174426079e-01 
  6.217197179794e-01   0.000000000000e+00  -8.352821469307e-01  -1.270287781954e-01   0.000000000000e+00  -5.615504384041e-01  -3.437904119492e-01   0.000000000000e+00  -6.051236987114e-01 
  0.000000000000e+00   0.000000000000e+00  -2.785231351852e+00   0.000000000000e+00   0.000000000000e+00  -2.867941617966e+00   2.520918846130e-01  -3.374611726031e-03  -8.905519247055e-01 
  2.520918846130e-01  -3.374611726031e-03  -8.905519247055e-01   0.000000000000e+00  -6.611786782742e-02  -4.221152663231e-01   0.000000000000e+00  -6.611786782742e-02  -4.221152663231e-01 
  4.662340134382e-02   1.327680330724e-02  -1.029065847397e+00   2.477047890425e-01   5.506161600351e-02  -1.563157677650e+00   0.000000000000e+00   1.456954628229e-01  -1.000000014901e-01 
  0.000000000000e+00  -3.164679110050e-01  -1.000000014901e-01   0.000000000000e+00  -4.458506405354e-02  -1.000000014901e-01   0.000000000000e+00   3.228615596890e-02  -1.000000014901e-01 
  9.011773467064e-01   3.553146123886e-02  -1.890433430672e+00   9.011773467064e-01   3.553146123886e-02  -1.890433430672e+00   0.000000000000e+00  -6.611786782742e-02  -4.221152663231e-01 
  0.000000000000e+00  -6.611786782742e-02  -4.221152663231e-01   4.662340134382e-02   1.327680330724e-02  -1.029065847397e+00   2.477047890425e-01   5.506161600351e-02  -1.563157677650e+00 
  0.000000000000e+00   1.456954628229e-01  -1.000000014901e-01   0.000000000000e+00  -3.164679110050e-01  -1.000000014901e-01   0.000000000000e+00  -4.458506405354e-02  -1.000000014901e-01 
  0.000000000000e+00   3.228615596890e-02  -1.000000014901e-01   9.011773467064e-01   3.553146123886e-02  -1.890433430672e+00   9.011773467064e-01   3.553146123886e-02  -1.890433430672e+00 
  0.000000000000e+00  -2.168991565704e-01  -3.384809494019e-01   0.000000000000e+00  -2.168991565704e-01  -3.384809494019e-01   6.141943857074e-02   4.137054085732e-02  -6.824948191643e-01 
  1.437091976404e-01   6.611389666796e-02  -1.011371135712e+00   6.246215850115e-02   2.080899924040e-01  -5.261884927750e-01   1.480250805616e-01  -3.085753321648e-01  -3.568275570869e-01 
  1.405787765980e-01  -4.593235254288e-02  -2.507024407387e-01   7.301916833967e-03   3.228615596890e-02  -1.000000014901e-01   0.000000000000e+00   2.904084697366e-02  -1.000000014901e-01 
  0.000000000000e+00   2.904084697366e-02  -1.000000014901e-01   0.000000000000e+00   2.269552275538e-02  -2.465164065361e-01   0.000000000000e+00   2.269552275538e-02  -2.465164065361e-01 
  6.972951442003e-02   1.102017425001e-02  -2.410614192486e-01   6.246349588037e-02   1.066316105425e-02  -3.287659883499e-01   9.353562444448e-02   1.006709635258e-01  -3.636049032211e-01 
  1.247135102749e-01  -1.532767117023e-01  -1.529717594385e-01   5.973506346345e-02  -4.354687407613e-02  -1.087027117610e-01   7.090047001839e-02   2.273133210838e-02  -8.818221837282e-02 
  5.881773680449e-02   0.000000000000e+00  -1.000000014901e-01   5.881773680449e-02   0.000000000000e+00  -1.000000014901e-01   0.000000000000e+00   3.166619539261e-01   1.720557361841e-02 
  0.000000000000e+00   3.166619539261e-01   1.720557361841e-02  -6.982494890690e-02   2.451815009117e-01  -4.655678570271e-02   0.000000000000e+00   1.580554246902e-01  -1.535078585148e-01 
  2.230539917946e-01   7.789387553930e-02  -2.649328410625e-01   2.274322509766e-01   4.494058713317e-02  -3.234084248543e-01   1.148268878460e-01   1.898968592286e-02  -1.651262193918e-01 
  1.134344041348e-01  -2.202989417128e-04  -6.182039901614e-02   2.257174700499e-01   0.000000000000e+00  -1.000000014901e-01   2.257174700499e-01   0.000000000000e+00  -1.000000014901e-01 
  0.000000000000e+00   4.203715622425e-01  -3.162809312344e-01   0.000000000000e+00   4.203715622425e-01  -3.162809312344e-01   3.684362396598e-02   2.678940817714e-02  -1.290912181139e-01 
  2.340672910213e-01   0.000000000000e+00  -3.397092819214e-01   5.095210671425e-01   4.630445037037e-03  -1.000000014901e-01   2.736036181450e-01   1.257858145982e-02  -1.000000014901e-01 
  1.040792688727e-01   4.751452058554e-02  -6.064535975456e-01   1.499522328377e-01   7.321467623115e-03  -8.813464641571e-02   1.575484424829e-01   0.000000000000e+00  -1.000000014901e-01 