# vtk DataFile Version 2.0
Written using VisIt writer
ASCII
DATASET RECTILINEAR_GRID
DIMENSIONS 10 10 10
X_COORDINATES 10 float
  0.000000000000e+00   5.000000000000e-01   1.000000000000e+00   1.500000000000e+00   2.000000000000e+00   2.500000000000e+00   3.000000000000e+00   3.500000000000e+00   4.000000000000e+00 
  4.500000000000e+00 
Y_COORDINATES 10 float
  0.000000000000e+00   5.000000000000e-01   1.000000000000e+00   1.500000000000e+00   2.000000000000e+00   2.500000000000e+00   3.000000000000e+00   3.500000000000e+00   4.000000000000e+00 
  4.500000000000e+00 
Z_COORDINATES 10 float
  0.000000000000e+00   5.000000000000e-01   1.000000000000e+00   1.500000000000e+00   2.000000000000e+00   2.500000000000e+00   3.000000000000e+00   3.500000000000e+00   4.000000000000e+00 
  4.500000000000e+00 
CELL_DATA 729
POINT_DATA 1000
VECTORS velocity float
  0.000000000000e+00  -1.733083128929e-01  -3.114016950130e-01   3.251200000000e+04   0.000000000000e+00   0.000000000000e+00   0.000000000000e+00   0.000000000000e+00   0.000000000000e+00 
 -3.912425786257e-02  -1.760092675686e-01  -4.016807973385e-01   0.000000000000e+00   0.000000000000e+00   0.000000000000e+00   0.000000000000e+00   1.431655808000e+09   1.070945600000e+09 
 -1.737959831953e-01  -2.140280455351e-01  -4.394881129265e-01   1.071994176000e+09   0.000000000000e+00   0.000000000000e+00   0.000000000000e+00   0.000000000000e+00   0.000000000000e+00 
 -9.812253713608e-02  -2.426385879517e-01  -5.357047319412e-01   0.000000000000e+00  -1.733083128929e-01  -3.114016950130e-01   1.070945600000e+09   0.000000000000e+00   0.000000000000e+00 
 -1.319907456636e-01  -2.035043835640e-01  -4.492546617985e-01  -3.912425786257e-02  -1.760092675686e-01  -4.016807973385e-01   1.431655808000e+09   1.070945600000e+09   0.000000000000e+00 
 -3.337306156754e-02  -1.750772446394e-01  -3.727513551712e-01  -1.737959831953e-01  -2.140280455351e-01  -4.394881129265e-01   0.000000000000e+00   0.000000000000e+00   1.071644672000e+09 
 -9.812253713608e-02  -2.426385879517e-01  -5.357047319412e-01  -9.812253713608e-02  -2.426385879517e-01  -5.357047319412e-01   0.000000000000e+00   3.570392355323e-02  -2.588506042957e-01 
  0.000000000000e+00   3.570392355323e-02  -2.588506042957e-01  -2.307218909264e-01   3.013942763209e-02  -3.568182587624e-01  -1.196317076683e-01  -7.625482231379e-02  -4.330486655235e-01 
 -1.253833472729e-01  -1.099533140659e-01  -5.057706236839e-01   1.067013368011e-01   5.335801839828e-02  -3.580901622772e-01   3.745932364836e-03   7.839175313711e-02  -3.524557352066e-01 
 -1.680438220501e-02   8.214396983385e-02  -3.356006443501e-01  -5.674794688821e-02   6.523571908474e-02  -3.847797811031e-01  -5.674794688821e-02   6.523571908474e-02  -3.847797811031e-01 
  0.000000000000e+00  -2.993861772120e-02  -2.578200101852e-01   0.000000000000e+00  -2.993861772120e-02  -2.578200101852e-01  -2.065847367048e-01   2.406451106071e-02  -3.593894243240e-01 
 -4.541230574250e-02   1.454629562795e-02  -3.438799977303e-01  -1.081517413259e-01  -4.754073545337e-02  -3.717715740204e-01  -5.535991489887e-02   2.329263277352e-02  -4.338354170322e-01 
 -1.377941966057e-01   2.309644594789e-02  -5.411077737808e-01   5.206130817533e-02   4.267349839211e-02  -3.734383583069e-01   2.095755748451e-02   3.107383474708e-02  -3.923147022724e-01 
  2.095755748451e-02   3.107383474708e-02  -3.923147022724e-01   0.000000000000e+00  -3.427965566516e-02  -2.787584662437e-01   0.000000000000e+00  -3.427965566516e-02  -2.787584662437e-01 
 -1.896116584539e-01  -8.037067204714e-02  -4.578876793385e-01   7.289906591177e-02  -3.316816315055e-02  -4.467370808125e-01  -3.326481580734e-02  -9.767677634954e-03  -4.115893244743e-01 
 -5.043679475784e-02   4.166284948587e-02  -3.799316883087e-01  -1.602857857943e-01   5.467754602432e-02  -4.341639280319e-01  -1.031721755862e-01  -2.380038797855e-02  -4.255731701851e-01 
 -9.005858004093e-02  -7.559859007597e-02  -5.273361206055e-01  -9.005858004093e-02  -7.559859007597e-02  -5.273361206055e-01   0.000000000000e+00  -5.420093890280e-03  -2.456680685282e-01 
  0.000000000000e+00  -5.420093890280e-03  -2.456680685282e-01  -1.192576363683e-01   1.096262112260e-01  -3.234212398529e-01  -1.442230790854e-01   4.454289376736e-02  -4.910682439804e-01 
 -1.670165657997e-01   4.171103064436e-04  -5.920512676239e-01   4.160449653864e-02   6.221289932728e-02  -3.618036806583e-01  -3.423503041267e-02   5.917525663972e-02  -4.110824465752e-01 
 -4.978298395872e-02   5.150676518679e-02  -3.540536761284e-01  -6.750544905663e-02   5.083173513412e-02  -3.850103020668e-01  -6.750544905663e-02   5.083173513412e-02  -3.850103020668e-01 
  0.000000000000e+00  -6.075221300125e-02  -2.495723366737e-01   0.000000000000e+00  -6.075221300125e-02  -2.495723366737e-01  -1.418088972569e-01   3.360957652330e-02  -3.752793669701e-01 
 -8.775227516890e-02   1.239847093821e-01  -3.639200329781e-01  -1.610327363014e-01   1.443682760000e-01  -4.193648099899e-01  -7.860637456179e-02   3.422684222460e-02  -5.307616591454e-01 
 -1.415161788464e-01  -3.332676365972e-02  -6.547073721886e-01   4.934940487146e-02  -3.289264813066e-02  -4.167538583279e-01  -2.347102761269e-02  -6.274556368589e-02  -4.486610293388e-01 
 -2.347102761269e-02  -6.274556368589e-02  -4.486610293388e-01   0.000000000000e+00  -1.402870863676e-01  -2.878191173077e-01   0.000000000000e+00  -1.402870863676e-01  -2.878191173077e-01 
 -2.032247036695e-01  -5.111325532198e-02  -4.790641963482e-01  -1.349709182978e-02   2.013676427305e-02  -3.484786152840e-01  -6.307190656662e-02   1.978418044746e-02  -3.597442209721e-01 
 -6.427005864680e-03   6.705349683762e-02  -3.753551840782e-01  -1.373995095491e-01   2.575550600886e-02  -4.262191057205e-01  -7.285054028034e-02  -8.572340756655e-02  -4.437375366688e-01 
 -8.026913553476e-02  -1.400481611490e-01  -5.669583678246e-01  -8.026913553476e-02  -1.400481611490e-01  -5.669583678246e-01   0.000000000000e+00   0.000000000000e+00  -2.577567398548e-01 
  0.000000000000e+00   0.000000000000e+00  -2.577567398548e-01  -2.049700617790e-01   0.000000000000e+00  -3.879742920399e-01  -9.799723327160e-02   0.000000000000e+00  -4.547373354435e-01 
 -1.326506733894e-01   0.000000000000e+00  -5.986754894257e-01   1.321286857128e-01   0.000000000000e+00  -4.266176819801e-01   2.062787301838e-02   0.000000000000e+00  -4.066909849644e-01 
  3.826982155442e-02   0.000000000000e+00  -3.548196554184e-01   3.980041667819e-02   0.000000000000e+00  -3.498455882072e-01   3.980041667819e-02   0.000000000000e+00  -3.498455882072e-01 
  0.000000000000e+00   0.000000000000e+00  -2.577567398548e-01   0.000000000000e+00   0.000000000000e+00  -2.577567398548e-01  -2.049700617790e-01   0.000000000000e+00  -3.879742920399e-01 
 -9.799723327160e-02   0.000000000000e+00  -4.547373354435e-01  -1.326506733894e-01   0.000000000000e+00  -5.986754894257e-01   1.321286857128e-01   0.000000000000e+00  -4.266176819801e-01 
  2.062787301838e-02   0.000000000000e+00  -4.066909849644e-01   3.826982155442e-02   0.000000000000e+00  -3.548196554184e-01   3.980041667819e-02   0.000000000000e+00  -3.498455882072e-01 
  3.980041667819e-02   0.000000000000e+00  -3.498455882072e-01   0.000000000000e+00  -1.733083128929e-01  -3.114016950130e-01   0.000000000000e+00  -1.733083128929e-01  -3.114016950130e-01 
 -1.319907456636e-01  -2.035043835640e-01  -4.492546617985e-01  -3.912425786257e-02  -1.760092675686e-01  -4.016807973385e-01  -6.846855580807e-02  -1.781844943762e-01  -3.735659122467e-01 
 -3.337306156754e-02  -1.750772446394e-01  -3.727513551712e-01  -1.737959831953e-01  -2.140280455351e-01  -4.394881129265e-01  -1.167749240994e-01  -2.217349559069e-01  -4.281293749809e-01 
 -9.812253713608e-02  -2.426385879517e-01  -5.357047319412e-01  -9.812253713608e-02  -2.426385879517e-01  -5.357047319412e-01   0.000000000000e+00  -1.733083128929e-01  -3.114016950130e-01 
  0.000000000000e+00  -1.733083128929e-01  -3.114016950130e-01  -1.319907456636e-01  -2.035043835640e-01  -4.492546617985e-01  -3.912425786257e-02  -1.760092675686e-01  -4.016807973385e-01 
 -6.846855580807e-02  -1.781844943762e-01  -3.735659122467e-01  -3.337306156754e-02  -1.750772446394e-01  -3.727513551712e-01  -1.737959831953e-01  -2.140280455351e-01  -4.394881129265e-01 
 -1.167749240994e-01  -2.217349559069e-01  -4.281293749809e-01  -9.812253713608e-02  -2.426385879517e-01  -5.357047319412e-01  -9.812253713608e-02  -2.426385879517e-01  -5.357047319412e-01 
  0.000000000000e+00   3.570392355323e-02  -2.588506042957e-01   0.000000000000e+00   3.570392355323e-02  -2.588506042957e-01  -2.307218909264e-01   3.013942763209e-02  -3.568182587624e-01 
 -1.196317076683e-01  -7.625482231379e-02  -4.330486655235e-01  -1.253833472729e-01  -1.099533140659e-01  -5.057706236839e-01   1.067013368011e-01   5.335801839828e-02  -3.580901622772e-01 
  3.745932364836e-03   7.839175313711e-02  -3.524557352066e-01  -1.680438220501e-02   8.214396983385e-02  -3.356006443501e-01  -5.674794688821e-02   6.523571908474e-02  -3.847797811031e-01 
 -5.674794688821e-02   6.523571908474e-02  -3.847797811031e-01   0.000000000000e+00  -2.993861772120e-02  -2.578200101852e-01   0.000000000000e+00  -2.993861772120e-02  -2.578200101852e-01 
 -2.065847367048e-01   2.406451106071e-02  -3.593894243240e-01  -4.541230574250e-02   1.454629562795e-02  -3.438799977303e-01  -1.081517413259e-01  -4.754073545337e-02  -3.717715740204e-01 
 -5.535991489887e-02   2.329263277352e-02  -4.338354170322e-01  -1.377941966057e-01   2.309644594789e-02  -5.411077737808e-01   5.206130817533e-02   4.267349839211e-02  -3.734383583069e-01 
  2.095755748451e-02   3.107383474708e-02  -3.923147022724e-01   2.095755748451e-02   3.107383474708e-02  -3.923147022724e-01   0.000000000000e+00  -3.427965566516e-02  -2.787584662437e-01 
  0.000000000000e+00  -3.427965566516e-02  -2.787584662437e-01  -1.896116584539e-01  -8.037067204714e-02  -4.578876793385e-01   7.289906591177e-02  -3.316816315055e-02  -4.467370808125e-01 
 -3.326481580734e-02  -9.767677634954e-03  -4.115893244743e-01  -5.043679475784e-02   4.166284948587e-02  -3.799316883087e-01  -1.602857857943e-01   5.467754602432e-02  -4.341639280319e-01 
 -1.031721755862e-01  -2.380038797855e-02  -4.255731701851e-01  -9.005858004093e-02  -7.559859007597e-02  -5.273361206055e-01  -9.005858004093e-02  -7.559859007597e-02  -5.273361206055e-01 
  0.000000000000e+00  -5.420093890280e-03  -2.456680685282e-01   0.000000000000e+00  -5.420093890280e-03  -2.456680685282e-01  -1.192576363683e-01   1.096262112260e-01  -3.234212398529e-01 
 -1.442230790854e-01   4.454289376736e-02  -4.910682439804e-01  -1.670165657997e-01   4.171103064436e-04  -5.920512676239e-01   4.160449653864e-02   6.221289932728e-02  -3.618036806583e-01 
 -3.423503041267e-02   5.917525663972e-02  -4.110824465752e-01  -4.978298395872e-02   5.150676518679e-02  -3.540536761284e-01  -6.750544905663e-02   5.083173513412e-02  -3.850103020668e-01 
 -6.750544905663e-02   5.083173513412e-02  -3.850103020668e-01   0.000000000000e+00  -6.075221300125e-02  -2.495723366737e-01   0.000000000000e+00  -6.075221300125e-02  -2.495723366737e-01 
 -1.418088972569e-01   3.360957652330e-02  -3.752793669701e-01  -8.775227516890e-02   1.239847093821e-01  -3.639200329781e-01  -1.610327363014e-01   1.443682760000e-01  -4.193648099899e-01 
 -7.860637456179e-02   3.422684222460e-02  -5.307616591454e-01  -1.415161788464e-01  -3.332676365972e-02  -6.547073721886e-01   4.934940487146e-02  -3.289264813066e-02  -4.167538583279e-01 
 -2.347102761269e-02  -6.274556368589e-02  -4.486610293388e-01  -2.347102761269e-02  -6.274556368589e-02  -4.486610293388e-01   0.000000000000e+00  -1.402870863676e-01  -2.878191173077e-01 
  0.000000000000e+00  -1.402870863676e-01  -2.878191173077e-01  -2.032247036695e-01  -5.111325532198e-02  -4.790641963482e-01  -1.349709182978e-02   2.013676427305e-02  -3.484786152840e-01 
 -6.307190656662e-02   1.978418044746e-02  -3.597442209721e-01  -6.427005864680e-03   6.705349683762e-02  -3.753551840782e-01  -1.373995095491e-01   2.575550600886e-02  -4.262191057205e-01 
 -7.285054028034e-02  -8.572340756655e-02  -4.437375366688e-01  -8.026913553476e-02  -1.400481611490e-01  -5.669583678246e-01  -8.026913553476e-02  -1.400481611490e-01  -5.669583678246e-01 
  0.000000000000e+00   0.000000000000e+00  -2.577567398548e-01   0.000000000000e+00   0.000000000000e+00  -2.577567398548e-01  -2.049700617790e-01   0.000000000000e+00  -3.879742920399e-01 
 -9.799723327160e-02   0.000000000000e+00  -4.547373354435e-01  -1.326506733894e-01   0.000000000000e+00  -5.986754894257e-01   1.321286857128e-01   0.000000000000e+00  -4.266176819801e-01 
  2.062787301838e-02   0.000000000000e+00  -4.066909849644e-01   3.826982155442e-02   0.000000000000e+00  -3.548196554184e-01   3.980041667819e-02   0.000000000000e+00  -3.498455882072e-01 
  3.980041667819e-02   0.000000000000e+00  -3.498455882072e-01   0.000000000000e+00   0.000000000000e+00  -2.577567398548e-01   0.000000000000e+00   0.000000000000e+00  -2.577567398548e-01 
 -2.049700617790e-01   0.000000000000e+00  -3.879742920399e-01  -9.799723327160e-02   0.000000000000e+00  -4.547373354435e-01  -1.326506733894e-01   0.000000000000e+00  -5.986754894257e-01 
  1.321286857128e-01   0.000000000000e+00  -4.266176819801e-01   2.062787301838e-02   0.000000000000e+00  -4.066909849644e-01   3.826982155442e-02   0.000000000000e+00  -3.548196554184e-01 
  3.980041667819e-02   0.000000000000e+00  -3.498455882072e-01   3.980041667819e-02   0.000000000000e+00  -3.498455882072e-01   0.000000000000e+00  -1.893949508667e-01  -4.609020054340e-01 
  0.000000000000e+00  -1.893949508667e-01  -4.609020054340e-01  -1.098521947861e-01  -2.265013307333e-01  -1.023790478706e+00  -7.233840227127e-02  -2.486914843321e-01  -1.361367583275e+00 
 -1.244027093053e-01  -2.651308476925e-01  -1.305256843567e+00  -2.904467657208e-02  -2.715740203857e-01  -1.364452958107e+00  -5.747473239899e-02  -2.905787527561e-01  -1.304380059242e+00 
 -3.823506832123e-02  -2.967738807201e-01  -1.266290545464e+00   1.948275975883e-02  -2.946609258652e-01  -1.169923782349e+00   1.948275975883e-02  -2.946609258652e-01  -1.169923782349e+00 
  0.000000000000e+00  -1.893949508667e-01  -4.609020054340e-01   0.000000000000e+00  -1.893949508667e-01  -4.609020054340e-01  -1.098521947861e-01  -2.265013307333e-01  -1.023790478706e+00 
 -7.233840227127e-02  -2.486914843321e-01  -1.361367583275e+00  -1.244027093053e-01  -2.651308476925e-01  -1.305256843567e+00  -2.904467657208e-02  -2.715740203857e-01  -1.364452958107e+00 
 -5.747473239899e-02  -2.905787527561e-01  -1.304380059242e+00  -3.823506832123e-02  -2.967738807201e-01  -1.266290545464e+00   1.948275975883e-02  -2.946609258652e-01  -1.169923782349e+00 
  1.948275975883e-02  -2.946609258652e-01  -1.169923782349e+00   0.000000000000e+00  -3.696209937334e-02  -4.063616693020e-01   0.000000000000e+00  -3.696209937334e-02  -4.063616693020e-01 
 -1.102720946074e-01  -7.167194038630e-02  -9.416543245316e-01  -7.896503061056e-02  -6.177611649036e-02  -1.298824191093e+00  -1.273852735758e-01  -6.202233955264e-02  -1.200998067856e+00 
 -2.980607561767e-02  -7.210927456617e-02  -1.332175731659e+00  -3.788344189525e-02  -6.683660298586e-02  -1.295751690865e+00  -2.641923166811e-02  -6.172636523843e-02  -1.317171573639e+00 
  2.715571410954e-02  -6.419717520475e-02  -1.288936853409e+00   2.715571410954e-02  -6.419717520475e-02  -1.288936853409e+00   0.000000000000e+00   8.698808401823e-02  -4.226386547089e-01 
  0.000000000000e+00   8.698808401823e-02  -4.226386547089e-01  -8.658659458160e-02   1.269318312407e-01  -9.470499753952e-01  -8.212547004223e-02   1.220356002450e-01  -1.383899211884e+00 
 -1.337906867266e-01   1.127263903618e-01  -1.353207588196e+00  -2.049758099020e-02   1.127268970013e-01  -1.368014335632e+00  -4.189808666706e-02   1.212333887815e-01  -1.219852805138e+00 
 -2.322483994067e-02   1.282595694065e-01  -1.320794105530e+00   2.803183346987e-02   1.287136524916e-01  -1.294356584549e+00   2.803183346987e-02   1.287136524916e-01  -1.294356584549e+00 
  0.000000000000e+00   5.171931348741e-03  -4.591114223003e-01   0.000000000000e+00   5.171931348741e-03  -4.591114223003e-01  -1.073599457741e-01  -1.778863742948e-02  -8.720234036446e-01 
 -6.767322123051e-02  -3.618530172389e-04  -1.351381421089e+00  -1.305509060621e-01  -1.042686053552e-03  -1.308121442795e+00  -2.158967591822e-02  -7.441872265190e-03  -1.330419778824e+00 
 -4.684170708060e-02   5.932991858572e-03  -1.283833146095e+00  -2.784956619143e-02   5.666415207088e-03  -1.265918493271e+00   2.351761236787e-02  -3.743047593161e-03  -1.159230589867e+00 
  2.351761236787e-02  -3.743047593161e-03  -1.159230589867e+00   0.000000000000e+00  -2.263418212533e-02  -4.258859753609e-01   0.000000000000e+00  -2.263418212533e-02  -4.258859753609e-01 
 -9.845343977213e-02  -4.891240596771e-02  -9.355205297470e-01  -6.548882275820e-02  -5.463772267103e-02  -1.313107132912e+00  -1.308332383633e-01  -5.488977953792e-02  -1.176810026169e+00 
 -1.559071429074e-02  -5.202094838023e-02  -1.313776016235e+00  -3.680043667555e-02  -3.854207694530e-02  -1.293290376663e+00  -2.527882903814e-02  -3.108080103993e-02  -1.333967804909e+00 
  3.165771812201e-02  -1.958063058555e-02  -1.291470289230e+00   3.165771812201e-02  -1.958063058555e-02  -1.291470289230e+00   0.000000000000e+00   3.584694489837e-02  -4.865056872368e-01 
  0.000000000000e+00   3.584694489837e-02  -4.865056872368e-01  -9.561757743359e-02   4.600593820214e-02  -9.834609031677e-01  -6.191063672304e-02   4.899889975786e-02  -1.372034907341e+00 
 -1.254369467497e-01   6.187545508146e-02  -1.334632396698e+00  -1.130857598037e-02   7.971834391356e-02  -1.260126829147e+00  -4.248438030481e-02   7.735502719879e-02  -1.213215231895e+00 
 -2.788517996669e-02   7.879273593426e-02  -1.273808717728e+00   2.917726337910e-02   8.073384314775e-02  -1.248799085617e+00   2.917726337910e-02   8.073384314775e-02  -1.248799085617e+00 
  0.000000000000e+00  -8.905217796564e-02  -4.857387840748e-01   0.000000000000e+00  -8.905217796564e-02  -4.857387840748e-01  -1.061140820384e-01  -1.075793653727e-01  -8.608819246292e-01 
 -5.431516468525e-02  -1.001328900456e-01  -1.360432267189e+00  -1.116777732968e-01  -8.263865113258e-02  -1.342514276505e+00   1.984185911715e-02  -6.934832781553e-02  -1.337752342224e+00 
 -4.059557244182e-02  -6.362243741751e-02  -1.309330224991e+00  -1.723837479949e-02  -5.399823188782e-02  -1.275558233261e+00   5.133946612477e-02  -4.473738372326e-02  -1.101545572281e+00 
  5.133946612477e-02  -4.473738372326e-02  -1.101545572281e+00   0.000000000000e+00   0.000000000000e+00  -6.010900139809e-01   0.000000000000e+00   0.000000000000e+00  -6.010900139809e-01 
 -8.207367360592e-02   0.000000000000e+00  -9.708441495895e-01  -6.941003352404e-02   0.000000000000e+00  -1.321816444397e+00  -1.124662756920e-01   0.000000000000e+00  -1.215279340744e+00 
  2.182865329087e-02   0.000000000000e+00  -1.337439537048e+00  -4.562342539430e-02   0.000000000000e+00  -1.336462736130e+00  -8.665712550282e-03   0.000000000000e+00  -1.328039884567e+00 
  3.987749293447e-02   0.000000000000e+00  -1.274592518806e+00   3.987749293447e-02   0.000000000000e+00  -1.274592518806e+00   0.000000000000e+00   0.000000000000e+00  -6.010900139809e-01 
  0.000000000000e+00   0.000000000000e+00  -6.010900139809e-01  -8.207367360592e-02   0.000000000000e+00  -9.708441495895e-01  -6.941003352404e-02   0.000000000000e+00  -1.321816444397e+00 
 -1.124662756920e-01   0.000000000000e+00  -1.215279340744e+00   2.182865329087e-02   0.000000000000e+00  -1.337439537048e+00  -4.562342539430e-02   0.000000000000e+00  -1.336462736130e+00 
 -8.665712550282e-03   0.000000000000e+00  -1.328039884567e+00   3.987749293447e-02   0.000000000000e+00  -1.274592518806e+00   3.987749293447e-02   0.000000000000e+00  -1.274592518806e+00 
  0.000000000000e+00  -1.098289638758e-01  -2.546755075455e-01   0.000000000000e+00  -1.098289638758e-01  -2.546755075455e-01  -8.255022019148e-02  -1.173891872168e-01  -7.786558866501e-01 
 -3.020751290023e-02  -1.258663088083e-01  -1.137026786804e+00  -1.097764670849e-01  -1.521584689617e-01  -1.101010680199e+00  -3.444000333548e-02  -1.627480983734e-01  -1.087460160255e+00 
 -4.934864863753e-02  -1.814053356647e-01  -1.086429834366e+00  -3.589611873031e-02  -1.903730928898e-01  -1.080903768539e+00   6.695128511637e-03  -1.932981312275e-01  -1.080827474594e+00 
  6.695128511637e-03  -1.932981312275e-01  -1.080827474594e+00   0.000000000000e+00  -1.098289638758e-01  -2.546755075455e-01   0.000000000000e+00  -1.098289638758e-01  -2.546755075455e-01 
 -8.255022019148e-02  -1.173891872168e-01  -7.786558866501e-01  -3.020751290023e-02  -1.258663088083e-01  -1.137026786804e+00  -1.097764670849e-01  -1.521584689617e-01  -1.101010680199e+00 
 -3.444000333548e-02  -1.627480983734e-01  -1.087460160255e+00  -4.934864863753e-02  -1.814053356647e-01  -1.086429834366e+00  -3.589611873031e-02  -1.903730928898e-01  -1.080903768539e+00 
  6.695128511637e-03  -1.932981312275e-01  -1.080827474594e+00   6.695128511637e-03  -1.932981312275e-01  -1.080827474594e+00   0.000000000000e+00  -3.448113799095e-02  -4.174270629883e-01 
  0.000000000000e+00  -3.448113799095e-02  -4.174270629883e-01  -7.694447785616e-02  -4.021786898375e-02  -8.695012331009e-01  -4.941626638174e-02  -2.741939760745e-02  -1.135207772255e+00 
 -9.740217775106e-02  -2.627874910831e-02  -1.097663164139e+00  -4.624376446009e-02  -3.743593767285e-02  -1.108976721764e+00  -3.141579404473e-02  -2.807891368866e-02  -1.108957886696e+00 
 -3.503250330687e-02  -2.478418126702e-02  -1.103290557861e+00   1.707547716796e-02  -1.928788609803e-02  -1.106244564056e+00   1.707547716796e-02  -1.928788609803e-02  -1.106244564056e+00 
  0.000000000000e+00   8.564741164446e-02  -4.267579317093e-01   0.000000000000e+00   8.564741164446e-02  -4.267579317093e-01  -8.494477719069e-02   6.133480742574e-02  -6.837156414986e-01 
 -6.035314872861e-03   7.196412235498e-02  -1.124387383461e+00  -9.261395037174e-02   5.973584949970e-02  -1.108535766602e+00  -3.785177320242e-02   7.241479307413e-02  -1.109000205994e+00 
 -2.714895270765e-02   8.051906526089e-02  -1.087699055672e+00  -3.019234165549e-02   9.257430583239e-02  -1.075770616531e+00   1.364592276514e-02   9.453096240759e-02  -1.023991942406e+00 
  1.364592276514e-02   9.453096240759e-02  -1.023991942406e+00   0.000000000000e+00   1.562720397487e-03  -4.132762253284e-01   0.000000000000e+00   1.562720397487e-03  -4.132762253284e-01 
 -8.192637562752e-02  -3.838520264253e-03  -7.526696324348e-01  -2.055483683944e-02   1.833459595218e-03  -1.095470666885e+00  -9.215666353703e-02   1.277196966112e-02  -1.047848224640e+00 
 -2.742645703256e-02   2.383698336780e-02  -1.052639961243e+00  -3.097166121006e-02   2.421246282756e-02  -1.044299006462e+00  -3.252633661032e-02   2.089061029255e-02  -1.028617382050e+00 
  8.180365897715e-03   8.136780932546e-03  -9.831638336182e-01   8.180365897715e-03   8.136780932546e-03  -9.831638336182e-01   0.000000000000e+00  -3.733983635902e-02  -3.424624502659e-01 
  0.000000000000e+00  -3.733983635902e-02  -3.424624502659e-01  -7.565972208977e-02  -5.048583447933e-02  -7.794436216354e-01  -1.424217876047e-02  -5.718411877751e-02  -1.125429868698e+00 
 -1.004434600472e-01  -6.195395812392e-02  -9.587948918343e-01  -1.539350301027e-02  -4.554516077042e-02  -1.059624075890e+00  -2.623693272471e-02  -4.080950096250e-02  -1.038862586021e+00 
 -2.374006435275e-02  -3.337553516030e-02  -1.050339698792e+00   1.920171082020e-02  -2.618990279734e-02  -1.046986818314e+00   1.920171082020e-02  -2.618990279734e-02  -1.046986818314e+00 
  0.000000000000e+00   3.811219707131e-02  -3.434844613075e-01   0.000000000000e+00   3.811219707131e-02  -3.434844613075e-01  -8.389054983854e-02   5.281426012516e-02  -7.971272468567e-01 
 -1.578557677567e-02   5.418955162168e-02  -1.131808876991e+00  -8.196842670441e-02   7.256249338388e-02  -1.096420526505e+00  -1.885300315917e-02   7.788198441267e-02  -1.083961367607e+00 
 -2.493741922081e-02   8.494578301907e-02  -1.036706328392e+00  -3.214398026466e-02   7.764121145010e-02  -1.061275005341e+00   1.412267517298e-02   7.513352483511e-02  -1.053323507309e+00 
  1.412267517298e-02   7.513352483511e-02  -1.053323507309e+00   0.000000000000e+00  -8.610057085752e-02  -3.382309675217e-01   0.000000000000e+00  -8.610057085752e-02  -3.382309675217e-01 
 -9.201131016016e-02  -9.315820038319e-02  -7.948324084282e-01  -8.254325017333e-03  -8.383304625750e-02  -1.112622141838e+00  -8.250310271978e-02  -6.796981394291e-02  -1.071414470673e+00 
  8.802195079625e-03  -4.304315894842e-02  -1.068492770195e+00  -2.006953209639e-02  -3.404557332397e-02  -1.061790466309e+00  -3.104902803898e-02  -3.493305295706e-02  -1.051169395447e+00 
  6.817666813731e-03  -4.187740758061e-02  -9.553153514862e-01   6.817666813731e-03  -4.187740758061e-02  -9.553153514862e-01   0.000000000000e+00   0.000000000000e+00  -2.624256610870e-01 
  0.000000000000e+00   0.000000000000e+00  -2.624256610870e-01  -8.395478874445e-02   0.000000000000e+00  -7.730309367180e-01  -4.237031191587e-02   0.000000000000e+00  -1.133147597313e+00 
 -9.228490293026e-02   0.000000000000e+00  -9.294236302376e-01   2.919540554285e-02   0.000000000000e+00  -1.049051523209e+00  -1.449664495885e-02   0.000000000000e+00  -1.073727488518e+00 
 -2.329097874463e-02   0.000000000000e+00  -1.084989905357e+00   1.689261756837e-02   0.000000000000e+00  -1.050151944160e+00   1.689261756837e-02   0.000000000000e+00  -1.050151944160e+00 
  0.000000000000e+00   0.000000000000e+00  -2.624256610870e-01   0.000000000000e+00   0.000000000000e+00  -2.624256610870e-01  -8.395478874445e-02   0.000000000000e+00  -7.730309367180e-01 
 -4.237031191587e-02   0.000000000000e+00  -1.133147597313e+00  -9.228490293026e-02   0.000000000000e+00  -9.294236302376e-01   2.919540554285e-02   0.000000000000e+00  -1.049051523209e+00 
 -1.449664495885e-02   0.000000000000e+00  -1.073727488518e+00  -2.329097874463e-02   0.000000000000e+00  -1.084989905357e+00   1.689261756837e-02   0.000000000000e+00  -1.050151944160e+00 
  1.689261756837e-02   0.000000000000e+00  -1.050151944160e+00   0.000000000000e+00  -5.300867930055e-02  -8.129733055830e-02   0.000000000000e+00  -5.300867930055e-02  -8.129733055830e-02 
 -2.821616083384e-02  -2.051415480673e-02  -5.515038967133e-01   1.223830855452e-03  -1.252759434283e-02  -1.179951190948e+00  -1.242966800928e-01  -4.940980300307e-02  -1.164268851280e+00 
 -4.951025173068e-02  -7.316435128450e-02  -1.143253445625e+00  -4.921500012279e-02  -8.963655680418e-02  -1.153488636017e+00  -2.826350741088e-02  -9.554438292980e-02  -1.134904742241e+00 
  7.673044689000e-03  -9.651508182287e-02  -1.129563689232e+00   7.673044689000e-03  -9.651508182287e-02  -1.129563689232e+00   0.000000000000e+00  -5.300867930055e-02  -8.129733055830e-02 
  0.000000000000e+00  -5.300867930055e-02  -8.129733055830e-02  -2.821616083384e-02  -2.051415480673e-02  -5.515038967133e-01   1.223830855452e-03  -1.252759434283e-02  -1.179951190948e+00 
 -1.242966800928e-01  -4.940980300307e-02  -1.164268851280e+00  -4.951025173068e-02  -7.316435128450e-02  -1.143253445625e+00  -4.921500012279e-02  -8.963655680418e-02  -1.153488636017e+00 
 -2.826350741088e-02  -9.554438292980e-02  -1.134904742241e+00   7.673044689000e-03  -9.651508182287e-02  -1.129563689232e+00   7.673044689000e-03  -9.651508182287e-02  -1.129563689232e+00 
  0.000000000000e+00   1.874256692827e-02  -1.372007876635e-01   0.000000000000e+00   1.874256692827e-02  -1.372007876635e-01  -2.056309580803e-02  -3.106171078980e-02  -6.131575107574e-01 
 -3.932116553187e-02  -1.522502116859e-02  -1.178165316582e+00  -9.141294658184e-02   2.614637371153e-03  -1.143591642380e+00  -9.975859522820e-02  -5.764584615827e-02  -1.167103648186e+00 
 -3.349529579282e-02  -5.990571528673e-02  -1.160060882568e+00  -3.775514289737e-02  -5.789126083255e-02  -1.162761449814e+00   1.391838025302e-02  -5.515976622701e-02  -1.177965402603e+00 
  1.391838025302e-02  -5.515976622701e-02  -1.177965402603e+00   0.000000000000e+00   7.614297419786e-02  -8.208858221769e-02   0.000000000000e+00   7.614297419786e-02  -8.208858221769e-02 
  3.556150943041e-03   5.990033224225e-02  -4.566287100315e-01  -1.188546605408e-02   2.670876495540e-02  -1.184810280800e+00  -7.284337282181e-02  -4.321980476379e-02  -1.165026307106e+00 
 -5.789619311690e-02   1.836957223713e-02  -1.164012551308e+00  -1.746105402708e-02   3.315312787890e-02  -1.105121493340e+00  -3.673198446631e-02   5.382077023387e-02  -1.078663229942e+00 
  1.688451040536e-03   5.513894557953e-02  -1.063962578773e+00   1.688451040536e-03   5.513894557953e-02  -1.063962578773e+00   0.000000000000e+00   7.130097132176e-03  -1.164775118232e-01 
  0.000000000000e+00   7.130097132176e-03  -1.164775118232e-01  -8.054684847593e-03   1.871155691333e-03  -5.506940484047e-01  -2.132932469249e-02   2.598443441093e-02  -1.141066908836e+00 
 -9.484709054232e-02   6.316710263491e-02  -1.101493000984e+00  -6.900237500668e-02   5.391858145595e-02  -1.137578606606e+00  -3.150292858481e-02   4.347885027528e-02  -1.132454037666e+00 
 -3.192763030529e-02   3.387016803026e-02  -1.095098018646e+00   5.785773508251e-03   5.003068968654e-02  -1.072781324387e+00   5.785773508251e-03   5.003068968654e-02  -1.072781324387e+00 
  0.000000000000e+00  -2.719560638070e-02  -3.534757494926e-01   0.000000000000e+00  -2.719560638070e-02  -3.534757494926e-01   4.646825138479e-03  -3.884041681886e-02  -7.068058252335e-01 
 -5.387695506215e-02  -5.177188664675e-02  -1.131576657295e+00  -1.222514808178e-01  -8.400616049767e-02  -1.009221792221e+00  -2.324176020920e-02  -3.248430788517e-02  -1.106076121330e+00 
 -2.535395510495e-02  -2.755140699446e-02  -1.121217846870e+00  -2.639345265925e-02  -2.258008718491e-02  -1.110044360161e+00   1.907558925450e-02  -1.443188637495e-02  -1.112853407860e+00 