# vtk DataFile Version 2.0
Written using VisIt writer
ASCII
DATASET RECTILINEAR_GRID
DIMENSIONS 10 10 10
X_COORDINATES 10 float
  0.000000000000e+00   5.000000000000e-01   1.000000000000e+00   1.500000000000e+00   2.000000000000e+00   2.500000000000e+00   3.000000000000e+00   3.500000000000e+00   4.000000000000e+00 
  4.500000000000e+00 
Y_COORDINATES 10 float
  0.000000000000e+00   5.000000000000e-01   1.000000000000e+00   1.500000000000e+00   2.000000000000e+00   2.500000000000e+00   3.000000000000e+00   3.500000000000e+00   4.000000000000e+00 
  4.500000000000e+00 
Z_COORDINATES 10 float
  0.000000000000e+00   5.000000000000e-01   1.000000000000e+00   1.500000000000e+00   2.000000000000e+00   2.500000000000e+00   3.000000000000e+00   3.500000000000e+00   4.000000000000e+00 
  4.500000000000e+00 
CELL_DATA 729
POINT_DATA 1000
VECTORS velocity float
  0.000000000000e+00  -2.324898689985e-01  -4.378918111324e-01   3.251200000000e+04   0.000000000000e+00   0.000000000000e+00   0.000000000000e+00   0.000000000000e+00   0.000000000000e+00 
  5.125680565834e-02  -2.050731182098e-01  -4.680818319321e-01   0.000000000000e+00   0.000000000000e+00   0.000000000000e+00   0.000000000000e+00   1.431655808000e+09   1.070945600000e+09 
 -9.242209047079e-02  -2.379747629166e-01  -4.983705580235e-01   1.071994176000e+09   0.000000000000e+00   0.000000000000e+00   0.000000000000e+00   0.000000000000e+00   0.000000000000e+00 
 -1.417729407549e-01  -2.707107663155e-01  -6.112388372421e-01   0.000000000000e+00  -2.324898689985e-01  -4.378918111324e-01   1.070945600000e+09   0.000000000000e+00   0.000000000000e+00 
 -1.303763091564e-01  -2.538729012012e-01  -5.387154221535e-01   5.125680565834e-02  -2.050731182098e-01  -4.680818319321e-01   1.431655808000e+09   1.070945600000e+09   0.000000000000e+00 
 -6.724324077368e-02  -2.081959098577e-01  -4.352397322655e-01  -9.242209047079e-02  -2.379747629166e-01  -4.983705580235e-01   0.000000000000e+00   0.000000000000e+00   1.071644672000e+09 
 -1.417729407549e-01  -2.707107663155e-01  -6.112388372421e-01  -1.417729407549e-01  -2.707107663155e-01  -6.112388372421e-01   0.000000000000e+00  -1.677096448839e-02  -3.504104018211e-01 
  0.000000000000e+00  -1.677096448839e-02  -3.504104018211e-01  -1.532541364431e-01  -1.944279484451e-02  -4.518075883389e-01  -8.234484493732e-02  -9.404838830233e-02  -4.964495599270e-01 
 -6.530383974314e-02  -1.546135544777e-01  -7.005199193954e-01   9.401461482048e-02  -4.113012552261e-02  -4.884479641914e-01   4.865625128150e-02  -6.477308273315e-02  -4.870355427265e-01 
 -6.324698030949e-02  -3.335066884756e-02  -4.197488129139e-01  -8.798450231552e-02  -2.635118551552e-02  -4.425391256809e-01  -8.798450231552e-02  -2.635118551552e-02  -4.425391256809e-01 
  0.000000000000e+00   4.403107240796e-02  -3.621377050877e-01   0.000000000000e+00   4.403107240796e-02  -3.621377050877e-01  -1.171650290489e-01   1.307409405708e-01  -4.750925600529e-01 
 -5.861556902528e-02   9.465232491493e-02  -3.839634954929e-01  -8.581475168467e-02   8.965527266264e-02  -4.043449163437e-01  -4.622564092278e-02   1.032236665487e-01  -4.867190420628e-01 
 -4.061806574464e-02   6.887575238943e-02  -5.987403988838e-01   3.728375956416e-02   9.555958956480e-02  -4.394286572933e-01  -1.457062829286e-02   1.864624582231e-02  -4.661576151848e-01 
 -1.457062829286e-02   1.864624582231e-02  -4.661576151848e-01   0.000000000000e+00   8.485564589500e-02  -4.367354214191e-01   0.000000000000e+00   8.485564589500e-02  -4.367354214191e-01 
 -1.629713326693e-01   4.708451405168e-02  -6.902786493301e-01   7.407031953335e-02   7.496110163629e-03  -5.282559990883e-01  -2.867916785181e-02   6.196633912623e-04  -5.359180569649e-01 
 -6.132408976555e-02   2.610266441479e-03  -4.311919808388e-01  -6.347730010748e-02   6.273875385523e-02  -4.591059982777e-01  -9.046603739262e-02   6.515649706125e-02  -4.977731704712e-01 
 -1.206753402948e-01   4.962732549757e-03  -6.575212478638e-01  -1.206753402948e-01   4.962732549757e-03  -6.575212478638e-01   0.000000000000e+00  -1.060443446040e-01  -3.368980884552e-01 
  0.000000000000e+00  -1.060443446040e-01  -3.368980884552e-01  -1.314776837826e-01   3.207886591554e-02  -4.112761318684e-01  -4.240098595619e-02  -9.798479825258e-02  -5.732736587524e-01 
 -1.071871444583e-01  -2.575982362032e-02  -8.305489420891e-01   3.923744428903e-03  -3.958543296903e-03  -4.766204655170e-01  -4.276787862182e-02  -2.549259550869e-02  -4.813847243786e-01 
 -3.750918433070e-02  -1.509823743254e-02  -4.154795706272e-01  -6.006622314453e-02   2.607160434127e-02  -4.481733441353e-01  -6.006622314453e-02   2.607160434127e-02  -4.481733441353e-01 
  0.000000000000e+00  -4.520956426859e-02  -4.068816900253e-01   0.000000000000e+00  -4.520956426859e-02  -4.068816900253e-01  -1.494449228048e-01   1.129074320197e-01  -4.790903627872e-01 
 -3.031649626791e-02   1.534215807915e-01  -4.391455650330e-01  -1.200568303466e-01   1.278444975615e-01  -5.045084953308e-01  -1.469619721174e-01  -2.044849842787e-02  -6.340460181236e-01 
 -1.427263021469e-01  -6.138946861029e-03  -7.350229024887e-01   1.877687498927e-02   8.869440294802e-03  -4.694786071777e-01  -3.724958747625e-02  -3.498476371169e-02  -4.885756373405e-01 
 -3.724958747625e-02  -3.498476371169e-02  -4.885756373405e-01   0.000000000000e+00  -1.582005620003e-01  -4.466196298599e-01   0.000000000000e+00  -1.582005620003e-01  -4.466196298599e-01 
 -1.806987822056e-01   3.239830257371e-03  -5.827986001968e-01   4.086131602526e-02   9.204436093569e-02  -4.315364956856e-01  -3.780804574490e-02   6.156834214926e-02  -4.484009146690e-01 
 -6.242837011814e-02   3.986237198114e-02  -4.324281215668e-01  -7.962787896395e-02   3.346036002040e-02  -4.750914573669e-01  -9.492058306932e-02  -8.901167660952e-02  -5.378676652908e-01 
 -1.038337349892e-01  -1.094815358520e-01  -6.878820061684e-01  -1.038337349892e-01  -1.094815358520e-01  -6.878820061684e-01   0.000000000000e+00   0.000000000000e+00  -3.473216295242e-01 
  0.000000000000e+00   0.000000000000e+00  -3.473216295242e-01  -2.690728008747e-01   0.000000000000e+00  -4.203661084175e-01  -2.265178412199e-02   0.000000000000e+00  -4.956276714802e-01 
 -7.028552889824e-02   0.000000000000e+00  -7.626725435257e-01   9.134700149298e-02   0.000000000000e+00  -5.313678383827e-01   4.676860943437e-02   0.000000000000e+00  -5.068761110306e-01 
  5.167740583420e-02   0.000000000000e+00  -4.765141606331e-01   4.438061267138e-02   0.000000000000e+00  -4.833100736141e-01   4.438061267138e-02   0.000000000000e+00  -4.833100736141e-01 
  0.000000000000e+00   0.000000000000e+00  -3.473216295242e-01   0.000000000000e+00   0.000000000000e+00  -3.473216295242e-01  -2.690728008747e-01   0.000000000000e+00  -4.203661084175e-01 
 -2.265178412199e-02   0.000000000000e+00  -4.956276714802e-01  -7.028552889824e-02   0.000000000000e+00  -7.626725435257e-01   9.134700149298e-02   0.000000000000e+00  -5.313678383827e-01 
  4.676860943437e-02   0.000000000000e+00  -5.068761110306e-01   5.167740583420e-02   0.000000000000e+00  -4.765141606331e-01   4.438061267138e-02   0.000000000000e+00  -4.833100736141e-01 
  4.438061267138e-02   0.000000000000e+00  -4.833100736141e-01   0.000000000000e+00  -2.324898689985e-01  -4.378918111324e-01   0.000000000000e+00  -2.324898689985e-01  -4.378918111324e-01 
 -1.303763091564e-01  -2.538729012012e-01  -5.387154221535e-01   5.125680565834e-02  -2.050731182098e-01  -4.680818319321e-01  -2.443789131939e-02  -2.091205269098e-01  -4.475801885128e-01 
 -6.724324077368e-02  -2.081959098577e-01  -4.352397322655e-01  -9.242209047079e-02  -2.379747629166e-01  -4.983705580235e-01  -1.475447267294e-01  -2.535552978516e-01  -4.787293672562e-01 
 -1.417729407549e-01  -2.707107663155e-01  -6.112388372421e-01  -1.417729407549e-01  -2.707107663155e-01  -6.112388372421e-01   0.000000000000e+00  -2.324898689985e-01  -4.378918111324e-01 
  0.000000000000e+00  -2.324898689985e-01  -4.378918111324e-01  -1.303763091564e-01  -2.538729012012e-01  -5.387154221535e-01   5.125680565834e-02  -2.050731182098e-01  -4.680818319321e-01 
 -2.443789131939e-02  -2.091205269098e-01  -4.475801885128e-01  -6.724324077368e-02  -2.081959098577e-01  -4.352397322655e-01  -9.242209047079e-02  -2.379747629166e-01  -4.983705580235e-01 
 -1.475447267294e-01  -2.535552978516e-01  -4.787293672562e-01  -1.417729407549e-01  -2.707107663155e-01  -6.112388372421e-01  -1.417729407549e-01  -2.707107663155e-01  -6.112388372421e-01 
  0.000000000000e+00  -1.677096448839e-02  -3.504104018211e-01   0.000000000000e+00  -1.677096448839e-02  -3.504104018211e-01  -1.532541364431e-01  -1.944279484451e-02  -4.518075883389e-01 
 -8.234484493732e-02  -9.404838830233e-02  -4.964495599270e-01  -6.530383974314e-02  -1.546135544777e-01  -7.005199193954e-01   9.401461482048e-02  -4.113012552261e-02  -4.884479641914e-01 
  4.865625128150e-02  -6.477308273315e-02  -4.870355427265e-01  -6.324698030949e-02  -3.335066884756e-02  -4.197488129139e-01  -8.798450231552e-02  -2.635118551552e-02  -4.425391256809e-01 
 -8.798450231552e-02  -2.635118551552e-02  -4.425391256809e-01   0.000000000000e+00   4.403107240796e-02  -3.621377050877e-01   0.000000000000e+00   4.403107240796e-02  -3.621377050877e-01 
 -1.171650290489e-01   1.307409405708e-01  -4.750925600529e-01  -5.861556902528e-02   9.465232491493e-02  -3.839634954929e-01  -8.581475168467e-02   8.965527266264e-02  -4.043449163437e-01 
 -4.622564092278e-02   1.032236665487e-01  -4.867190420628e-01  -4.061806574464e-02   6.887575238943e-02  -5.987403988838e-01   3.728375956416e-02   9.555958956480e-02  -4.394286572933e-01 
 -1.457062829286e-02   1.864624582231e-02  -4.661576151848e-01  -1.457062829286e-02   1.864624582231e-02  -4.661576151848e-01   0.000000000000e+00   8.485564589500e-02  -4.367354214191e-01 
  0.000000000000e+00   8.485564589500e-02  -4.367354214191e-01  -1.629713326693e-01   4.708451405168e-02  -6.902786493301e-01   7.407031953335e-02   7.496110163629e-03  -5.282559990883e-01 
 -2.867916785181e-02   6.196633912623e-04  -5.359180569649e-01  -6.132408976555e-02   2.610266441479e-03  -4.311919808388e-01  -6.347730010748e-02   6.273875385523e-02  -4.591059982777e-01 
 -9.046603739262e-02   6.515649706125e-02  -4.977731704712e-01  -1.206753402948e-01   4.962732549757e-03  -6.575212478638e-01  -1.206753402948e-01   4.962732549757e-03  -6.575212478638e-01 
  0.000000000000e+00  -1.060443446040e-01  -3.368980884552e-01   0.000000000000e+00  -1.060443446040e-01  -3.368980884552e-01  -1.314776837826e-01   3.207886591554e-02  -4.112761318684e-01 
 -4.240098595619e-02  -9.798479825258e-02  -5.732736587524e-01  -1.071871444583e-01  -2.575982362032e-02  -8.305489420891e-01   3.923744428903e-03  -3.958543296903e-03  -4.766204655170e-01 
 -4.276787862182e-02  -2.549259550869e-02  -4.813847243786e-01  -3.750918433070e-02  -1.509823743254e-02  -4.154795706272e-01  -6.006622314453e-02   2.607160434127e-02  -4.481733441353e-01 
 -6.006622314453e-02   2.607160434127e-02  -4.481733441353e-01   0.000000000000e+00  -4.520956426859e-02  -4.068816900253e-01   0.000000000000e+00  -4.520956426859e-02  -4.068816900253e-01 
 -1.494449228048e-01   1.129074320197e-01  -4.790903627872e-01  -3.031649626791e-02   1.534215807915e-01  -4.391455650330e-01  -1.200568303466e-01   1.278444975615e-01  -5.045084953308e-01 
 -1.469619721174e-01  -2.044849842787e-02  -6.340460181236e-01  -1.427263021469e-01  -6.138946861029e-03  -7.350229024887e-01   1.877687498927e-02   8.869440294802e-03  -4.694786071777e-01 
 -3.724958747625e-02  -3.498476371169e-02  -4.885756373405e-01  -3.724958747625e-02  -3.498476371169e-02  -4.885756373405e-01   0.000000000000e+00  -1.582005620003e-01  -4.466196298599e-01 
  0.000000000000e+00  -1.582005620003e-01  -4.466196298599e-01  -1.806987822056e-01   3.239830257371e-03  -5.827986001968e-01   4.086131602526e-02   9.204436093569e-02  -4.315364956856e-01 
 -3.780804574490e-02   6.156834214926e-02  -4.484009146690e-01  -6.242837011814e-02   3.986237198114e-02  -4.324281215668e-01  -7.962787896395e-02   3.346036002040e-02  -4.750914573669e-01 
 -9.492058306932e-02  -8.901167660952e-02  -5.378676652908e-01  -1.038337349892e-01  -1.094815358520e-01  -6.878820061684e-01  -1.038337349892e-01  -1.094815358520e-01  -6.878820061684e-01 
  0.000000000000e+00   0.000000000000e+00  -3.473216295242e-01   0.000000000000e+00   0.000000000000e+00  -3.473216295242e-01  -2.690728008747e-01   0.000000000000e+00  -4.203661084175e-01 
 -2.265178412199e-02   0.000000000000e+00  -4.956276714802e-01  -7.028552889824e-02   0.000000000000e+00  -7.626725435257e-01   9.134700149298e-02   0.000000000000e+00  -5.313678383827e-01 
  4.676860943437e-02   0.000000000000e+00  -5.068761110306e-01   5.167740583420e-02   0.000000000000e+00  -4.765141606331e-01   4.438061267138e-02   0.000000000000e+00  -4.833100736141e-01 
  4.438061267138e-02   0.000000000000e+00  -4.833100736141e-01   0.000000000000e+00   0.000000000000e+00  -3.473216295242e-01   0.000000000000e+00   0.000000000000e+00  -3.473216295242e-01 
 -2.690728008747e-01   0.000000000000e+00  -4.203661084175e-01  -2.265178412199e-02   0.000000000000e+00  -4.956276714802e-01  -7.028552889824e-02   0.000000000000e+00  -7.626725435257e-01 
  9.134700149298e-02   0.000000000000e+00  -5.313678383827e-01   4.676860943437e-02   0.000000000000e+00  -5.068761110306e-01   5.167740583420e-02   0.000000000000e+00  -4.765141606331e-01 
  4.438061267138e-02   0.000000000000e+00  -4.833100736141e-01   4.438061267138e-02   0.000000000000e+00  -4.833100736141e-01   0.000000000000e+00  -3.057430982590e-01  -8.218733072281e-01 
  0.000000000000e+00  -3.057430982590e-01  -8.218733072281e-01  -1.550485044718e-01  -3.178872466087e-01  -1.004194498062e+00  -1.936711929739e-02  -3.069278895855e-01  -1.216398835182e+00 
 -7.096053659916e-02  -3.137511909008e-01  -1.218813896179e+00  -6.204057484865e-02  -3.182767033577e-01  -1.280400037766e+00  -5.219225585461e-02  -3.258402049541e-01  -1.207521080971e+00 
 -4.717324301600e-02  -3.333464562893e-01  -1.174737215042e+00  -1.584384776652e-02  -3.318990468979e-01  -1.084663391113e+00  -1.584384776652e-02  -3.318990468979e-01  -1.084663391113e+00 
  0.000000000000e+00  -3.057430982590e-01  -8.218733072281e-01   0.000000000000e+00  -3.057430982590e-01  -8.218733072281e-01  -1.550485044718e-01  -3.178872466087e-01  -1.004194498062e+00 
 -1.936711929739e-02  -3.069278895855e-01  -1.216398835182e+00  -7.096053659916e-02  -3.137511909008e-01  -1.218813896179e+00  -6.204057484865e-02  -3.182767033577e-01  -1.280400037766e+00 
 -5.219225585461e-02  -3.258402049541e-01  -1.207521080971e+00  -4.717324301600e-02  -3.333464562893e-01  -1.174737215042e+00  -1.584384776652e-02  -3.318990468979e-01  -1.084663391113e+00 
 -1.584384776652e-02  -3.318990468979e-01  -1.084663391113e+00   0.000000000000e+00  -7.726548612118e-02  -8.812931776047e-01   0.000000000000e+00  -7.726548612118e-02  -8.812931776047e-01 
 -1.677977740765e-01  -8.957397192717e-02  -1.010653614998e+00  -2.177859842777e-02  -8.946481347084e-02  -1.144407749176e+00  -6.797172874212e-02  -8.765395730734e-02  -1.082817792892e+00 
 -6.447485834360e-02  -9.792014956474e-02  -1.203574657440e+00  -3.593846410513e-02  -1.027164831758e-01  -1.235197305679e+00  -3.023845329881e-02  -1.026917621493e-01  -1.260581970215e+00 
 -6.489878054708e-03  -1.056420356035e-01  -1.232955336571e+00  -6.489878054708e-03  -1.056420356035e-01  -1.232955336571e+00   0.000000000000e+00   1.773278266191e-01  -8.405269980431e-01 
  0.000000000000e+00   1.773278266191e-01  -8.405269980431e-01  -1.657447814941e-01   1.540343761444e-01  -9.665023684502e-01  -4.606924578547e-02   1.380310505629e-01  -1.284535646439e+00 
 -6.875018775463e-02   1.324727833271e-01  -1.272532224655e+00  -4.799474403262e-02   1.448456197977e-01  -1.252247095108e+00  -3.542827814817e-02   1.419430226088e-01  -1.091948509216e+00 
 -2.439540810883e-02   1.605175882578e-01  -1.206926465034e+00  -1.419133041054e-02   1.588727235794e-01  -1.213039636612e+00  -1.419133041054e-02   1.588727235794e-01  -1.213039636612e+00 
  0.000000000000e+00   3.587162122130e-03  -7.845851778984e-01   0.000000000000e+00   3.587162122130e-03  -7.845851778984e-01  -1.522784233093e-01   6.039133761078e-03  -8.476458191872e-01 
 -4.728335887194e-02   1.783463172615e-02  -1.228412151337e+00  -6.932810693979e-02   1.398357376456e-02  -1.245134115219e+00  -4.950648173690e-02   1.792083494365e-02  -1.287002086639e+00 
 -3.908135369420e-02   1.845710538328e-02  -1.241947770119e+00  -3.663195297122e-02   1.956455968320e-02  -1.176711678505e+00  -2.334207296371e-02   1.253046747297e-02  -1.039802789688e+00 
 -2.334207296371e-02   1.253046747297e-02  -1.039802789688e+00   0.000000000000e+00  -4.431959986687e-02  -8.481304049492e-01   0.000000000000e+00  -4.431959986687e-02  -8.481304049492e-01 
 -1.657409518957e-01  -4.881338030100e-02  -1.004993319511e+00  -2.799401804805e-02  -3.540399298072e-02  -1.202615618706e+00  -6.803824007511e-02  -3.821163251996e-02  -1.039364099503e+00 
 -4.104746505618e-02  -3.515456616879e-02  -1.181728243828e+00  -3.529225662351e-02  -2.816641144454e-02  -1.211108207703e+00  -3.036709874868e-02  -2.642094343901e-02  -1.270062804222e+00 
 -1.150908507407e-02  -1.874945126474e-02  -1.211769580841e+00  -1.150908507407e-02  -1.874945126474e-02  -1.211769580841e+00   0.000000000000e+00   2.318003028631e-02  -9.577238559723e-01 
  0.000000000000e+00   2.318003028631e-02  -9.577238559723e-01  -1.571283489466e-01   2.181177586317e-02  -1.089444041252e+00  -2.058626525104e-02   3.131689503789e-02  -1.324537634850e+00 
 -6.538458168507e-02   3.727230429649e-02  -1.275806188583e+00  -4.289205372334e-02   4.426385834813e-02  -1.182479143143e+00  -4.828925430775e-02   3.926076740026e-02  -1.086523175240e+00 
 -3.754691034555e-02   3.671953827143e-02  -1.188208222389e+00  -1.848237589002e-02   3.463187813759e-02  -1.151037335396e+00  -1.848237589002e-02   3.463187813759e-02  -1.151037335396e+00 
  0.000000000000e+00  -3.465117514133e-02  -8.339338898659e-01   0.000000000000e+00  -3.465117514133e-02  -8.339338898659e-01  -1.626209169626e-01  -4.524257779121e-02  -9.018665552139e-01 
 -2.225928753614e-02  -4.143963009119e-02  -1.239702224731e+00  -4.729845374823e-02  -2.333482727408e-02  -1.266939282417e+00  -2.771438471973e-02  -7.582722231746e-03  -1.328960299492e+00 
 -4.198086261749e-02  -6.770499050617e-03  -1.293327093124e+00  -3.001186624169e-02  -7.680637296289e-03  -1.158464789391e+00  -3.039343515411e-03  -7.144880364649e-04  -9.852675199509e-01 
 -3.039343515411e-03  -7.144880364649e-04  -9.852675199509e-01   0.000000000000e+00   0.000000000000e+00  -8.630457520485e-01   0.000000000000e+00   0.000000000000e+00  -8.630457520485e-01 
 -1.795246452093e-01   0.000000000000e+00  -1.017586350441e+00  -3.273333981633e-02   0.000000000000e+00  -1.146246671677e+00  -3.912538662553e-02   0.000000000000e+00  -1.028590440750e+00 
 -1.741873845458e-02   0.000000000000e+00  -1.261553287506e+00  -4.754524677992e-02   0.000000000000e+00  -1.373052835464e+00  -2.306627295911e-02   0.000000000000e+00  -1.354102373123e+00 
 -8.384007960558e-04   0.000000000000e+00  -1.256579637527e+00  -8.384007960558e-04   0.000000000000e+00  -1.256579637527e+00   0.000000000000e+00   0.000000000000e+00  -8.630457520485e-01 
  0.000000000000e+00   0.000000000000e+00  -8.630457520485e-01  -1.795246452093e-01   0.000000000000e+00  -1.017586350441e+00  -3.273333981633e-02   0.000000000000e+00  -1.146246671677e+00 
 -3.912538662553e-02   0.000000000000e+00  -1.028590440750e+00  -1.741873845458e-02   0.000000000000e+00  -1.261553287506e+00  -4.754524677992e-02   0.000000000000e+00  -1.373052835464e+00 
 -2.306627295911e-02   0.000000000000e+00  -1.354102373123e+00  -8.384007960558e-04   0.000000000000e+00  -1.256579637527e+00  -8.384007960558e-04   0.000000000000e+00  -1.256579637527e+00 
  0.000000000000e+00  -2.605051100254e-01  -9.287597537041e-01   0.000000000000e+00  -2.605051100254e-01  -9.287597537041e-01  -1.491522192955e-01  -2.636492550373e-01  -1.013715505600e+00 
 -3.685311973095e-02  -2.438195347786e-01  -1.093391299248e+00  -4.985975846648e-02  -2.452876269817e-01  -1.085603833199e+00  -4.690402373672e-02  -2.465008646250e-01  -1.079236149788e+00 
 -3.236352279782e-02  -2.518750429153e-01  -1.062728643417e+00  -3.536900877953e-02  -2.588045001030e-01  -1.046869993210e+00  -1.540581230074e-02  -2.623173296452e-01  -1.037446379662e+00 
 -1.540581230074e-02  -2.623173296452e-01  -1.037446379662e+00   0.000000000000e+00  -2.605051100254e-01  -9.287597537041e-01   0.000000000000e+00  -2.605051100254e-01  -9.287597537041e-01 
 -1.491522192955e-01  -2.636492550373e-01  -1.013715505600e+00  -3.685311973095e-02  -2.438195347786e-01  -1.093391299248e+00  -4.985975846648e-02  -2.452876269817e-01  -1.085603833199e+00 
 -4.690402373672e-02  -2.465008646250e-01  -1.079236149788e+00  -3.236352279782e-02  -2.518750429153e-01  -1.062728643417e+00  -3.536900877953e-02  -2.588045001030e-01  -1.046869993210e+00 
 -1.540581230074e-02  -2.623173296452e-01  -1.037446379662e+00  -1.540581230074e-02  -2.623173296452e-01  -1.037446379662e+00   0.000000000000e+00  -4.693080484867e-02  -8.977473378181e-01 
  0.000000000000e+00  -4.693080484867e-02  -8.977473378181e-01  -1.472894549370e-01  -5.534601211548e-02  -9.882894754410e-01  -3.804226592183e-02  -5.789569020271e-02  -1.092125058174e+00 
 -5.105852335691e-02  -5.881189927459e-02  -1.079796075821e+00  -4.647437855601e-02  -5.724291503429e-02  -1.073108434677e+00  -2.491362579167e-02  -5.808666348457e-02  -1.052914500237e+00 
 -2.524489536881e-02  -5.431845411658e-02  -1.055459022522e+00  -1.095766481012e-02  -5.352453142405e-02  -1.052645921707e+00  -1.095766481012e-02  -5.352453142405e-02  -1.052645921707e+00 
  0.000000000000e+00   8.677276968956e-02  -8.438711762428e-01   0.000000000000e+00   8.677276968956e-02  -8.438711762428e-01  -1.562131196260e-01   7.925532758236e-02  -9.253746271133e-01 
 -2.862073481083e-02   9.572749584913e-02  -1.083185076714e+00  -4.876468330622e-02   9.886243194342e-02  -1.083663940430e+00  -5.113276466727e-02   7.831908762455e-02  -1.082517266273e+00 
 -3.506257012486e-02   7.670738548040e-02  -1.014414668083e+00  -2.310445159674e-02   8.645080775023e-02  -1.045269846916e+00  -1.654690131545e-02   8.725282549858e-02  -1.036150813103e+00 
 -1.654690131545e-02   8.725282549858e-02  -1.036150813103e+00   0.000000000000e+00   2.328171022236e-02  -8.618285059929e-01   0.000000000000e+00   2.328171022236e-02  -8.618285059929e-01 
 -1.456699967384e-01   2.445506490767e-02  -9.006004333496e-01  -3.248469159007e-02   2.173720300198e-02  -1.060478925705e+00  -4.831327497959e-02   2.245691791177e-02  -1.053637742996e+00 
 -3.892397880554e-02   3.363059461117e-02  -1.061025977135e+00  -2.868661656976e-02   4.081801325083e-02  -1.052965402603e+00  -3.345449268818e-02   3.513976186514e-02  -1.038583159447e+00 
 -2.234158664942e-02   3.089530020952e-02  -9.520161747932e-01  -2.234158664942e-02   3.089530020952e-02  -9.520161747932e-01   0.000000000000e+00  -3.573276847601e-02  -9.543849825859e-01 
  0.000000000000e+00  -3.573276847601e-02  -9.543849825859e-01  -1.528159379959e-01  -3.728649392724e-02  -1.028795957565e+00  -4.200623556972e-02  -4.809450358152e-02  -1.093809485435e+00 
 -5.417738482356e-02  -5.410341545939e-02  -9.658164978027e-01  -4.069715365767e-02  -5.385031923652e-02  -1.038950204849e+00  -2.556981705129e-02  -4.728573188186e-02  -1.046117424965e+00 
 -2.203625254333e-02  -3.073888644576e-02  -1.043224811554e+00  -9.658081457019e-03  -1.849734969437e-02  -1.040059566498e+00  -9.658081457019e-03  -1.849734969437e-02  -1.040059566498e+00 
  0.000000000000e+00   1.863566599786e-02  -9.849094152451e-01   0.000000000000e+00   1.863566599786e-02  -9.849094152451e-01  -1.422697901726e-01   2.626551687717e-02  -1.038172960281e+00 
 -2.142246067524e-02   3.970150649548e-02  -1.075149178505e+00  -4.223573952913e-02   4.808337986469e-02  -1.086163282394e+00  -4.881248623133e-02   4.442498087883e-02  -1.076634645462e+00 
 -3.410386294127e-02   3.756630420685e-02  -1.030700087547e+00  -3.147711604834e-02   3.043509833515e-02  -1.034233570099e+00  -1.837931200862e-02   2.656304091215e-02  -1.029466152191e+00 
 -1.837931200862e-02   2.656304091215e-02  -1.029466152191e+00   0.000000000000e+00  -4.047878086567e-02  -8.329069614410e-01   0.000000000000e+00  -4.047878086567e-02  -8.329069614410e-01 
 -1.497131735086e-01  -4.587426409125e-02  -9.098896980286e-01  -2.123449929059e-02  -3.690332546830e-02  -1.064568042755e+00  -3.028724901378e-02  -1.548454165459e-02  -1.064849376678e+00 
 -2.341430261731e-02   7.272655144334e-03  -1.066693902016e+00  -2.264430187643e-02   1.186478137970e-02  -1.053354978561e+00  -4.036682844162e-02   2.195912878960e-03  -1.031907320023e+00 
 -2.190584689379e-02  -3.934616979677e-04  -9.475240111351e-01  -2.190584689379e-02  -3.934616979677e-04  -9.475240111351e-01   0.000000000000e+00   0.000000000000e+00  -6.921519041061e-01 
  0.000000000000e+00   0.000000000000e+00  -6.921519041061e-01  -1.614927351475e-01   0.000000000000e+00  -8.811904191971e-01  -4.574247449636e-02   0.000000000000e+00  -1.088301658630e+00 
 -3.421968594193e-02   0.000000000000e+00  -9.525892138481e-01   2.238092012703e-03   0.000000000000e+00  -1.008618474007e+00  -8.628960698843e-03   0.000000000000e+00  -1.060081720352e+00 
 -2.927660569549e-02   0.000000000000e+00  -1.048920512199e+00  -1.465213485062e-02   0.000000000000e+00  -1.028304219246e+00  -1.465213485062e-02   0.000000000000e+00  -1.028304219246e+00 
  0.000000000000e+00   0.000000000000e+00  -6.921519041061e-01   0.000000000000e+00   0.000000000000e+00  -6.921519041061e-01  -1.614927351475e-01   0.000000000000e+00  -8.811904191971e-01 
 -4.574247449636e-02   0.000000000000e+00  -1.088301658630e+00  -3.421968594193e-02   0.000000000000e+00  -9.525892138481e-01   2.238092012703e-03   0.000000000000e+00  -1.008618474007e+00 
 -8.628960698843e-03   0.000000000000e+00  -1.060081720352e+00  -2.927660569549e-02   0.000000000000e+00  -1.048920512199e+00  -1.465213485062e-02   0.000000000000e+00  -1.028304219246e+00 
 -1.465213485062e-02   0.000000000000e+00  -1.028304219246e+00   0.000000000000e+00  -1.700690984726e-01  -1.084157586098e+00   0.000000000000e+00  -1.700690984726e-01  -1.084157586098e+00 
 -1.314501464367e-01  -1.809338182211e-01  -1.119192123413e+00  -5.063043907285e-02  -1.679598093033e-01  -1.134451746941e+00  -3.020935505629e-02  -1.681953221560e-01  -1.123088717461e+00 
 -4.451831430197e-02  -1.734806150198e-01  -1.116464495659e+00  -1.928327418864e-02  -1.792998462915e-01  -1.104973912239e+00  -2.619066648185e-02  -1.868960708380e-01  -1.093442320824e+00 
 -5.405964329839e-03  -1.893640011549e-01  -1.081707835197e+00  -5.405964329839e-03  -1.893640011549e-01  -1.081707835197e+00   0.000000000000e+00  -1.700690984726e-01  -1.084157586098e+00 
  0.000000000000e+00  -1.700690984726e-01  -1.084157586098e+00  -1.314501464367e-01  -1.809338182211e-01  -1.119192123413e+00  -5.063043907285e-02  -1.679598093033e-01  -1.134451746941e+00 
 -3.020935505629e-02  -1.681953221560e-01  -1.123088717461e+00  -4.451831430197e-02  -1.734806150198e-01  -1.116464495659e+00  -1.928327418864e-02  -1.792998462915e-01  -1.104973912239e+00 
 -2.619066648185e-02  -1.868960708380e-01  -1.093442320824e+00  -5.405964329839e-03  -1.893640011549e-01  -1.081707835197e+00  -5.405964329839e-03  -1.893640011549e-01  -1.081707835197e+00 
  0.000000000000e+00  -1.636777073145e-03  -9.972108602524e-01   0.000000000000e+00  -1.636777073145e-03  -9.972108602524e-01  -1.274923384190e-01   9.130862541497e-03  -1.117650270462e+00 
 -4.948722571135e-02   1.000520121306e-02  -1.132440924644e+00  -2.997567877173e-02   1.034352835268e-02  -1.118232727051e+00  -4.643183946609e-02   8.166845887899e-03  -1.112665414810e+00 
 -1.696852222085e-02   6.711381021887e-03  -1.104719996452e+00  -2.178978361189e-02   7.361634168774e-03  -1.097748637199e+00  -3.885394427925e-03   7.742869667709e-03  -1.089987516403e+00 
 -3.885394427925e-03   7.742869667709e-03  -1.089987516403e+00   0.000000000000e+00   1.647172495723e-02  -8.558141589165e-01   0.000000000000e+00   1.647172495723e-02  -8.558141589165e-01 
 -1.360573470592e-01   1.037770300172e-03  -1.063900351524e+00  -4.659648239613e-02   6.105951033533e-03  -1.135411739349e+00  -2.755917049944e-02   3.881264012307e-03  -1.123029947281e+00 
 -4.446005821228e-02   6.623558234423e-03  -1.114999055862e+00  -1.820809021592e-02   1.001518312842e-02  -1.101149201393e+00  -2.122764848173e-02   1.684579253197e-02  -1.094440102577e+00 
 -5.832503549755e-03   1.908061653376e-02  -1.086110711098e+00  -5.832503549755e-03   1.908061653376e-02  -1.086110711098e+00   0.000000000000e+00   4.620205610991e-02  -7.196127772331e-01 
  0.000000000000e+00   4.620205610991e-02  -7.196127772331e-01  -1.341403275728e-01   4.312102496624e-02  -1.030110597610e+00  -5.116171017289e-02   4.030958563089e-02  -1.114941716194e+00 
 -2.817948535085e-02   3.983087092638e-02  -1.110720276833e+00  -3.835733607411e-02   4.592578113079e-02  -1.104979634285e+00  -1.486818306148e-02   4.997710511088e-02  -1.094165444374e+00 
 -2.377479523420e-02   4.824927449226e-02  -1.084179759026e+00  -9.659043513238e-03   4.507917165756e-02  -1.073393106461e+00  -9.659043513238e-03   4.507917165756e-02  -1.073393106461e+00 
  0.000000000000e+00  -4.463085159659e-02  -8.915143609047e-01   0.000000000000e+00  -4.463085159659e-02  -8.915143609047e-01  -1.253513991833e-01  -4.246543720365e-02  -1.081364393234e+00 
 -5.519204586744e-02  -4.560799524188e-02  -1.125770568848e+00  -3.186558932066e-02  -4.766461625695e-02  -1.108515262604e+00  -3.602456673980e-02  -4.315289109945e-02  -1.097615361214e+00 
 -1.303245313466e-02  -4.028043150902e-02  -1.085993647575e+00  -2.012341096997e-02  -3.591712191701e-02  -1.081154108047e+00  -3.447353374213e-03  -3.036163374782e-02  -1.074682831764e+00 