# vtk DataFile Version 2.0
Written using VisIt writer
ASCII
DATASET RECTILINEAR_GRID
DIMENSIONS 10 10 10
X_COORDINATES 10 float
  0.000000000000e+00   5.000000000000e-01   1.000000000000e+00   1.500000000000e+00   2.000000000000e+00   2.500000000000e+00   3.000000000000e+00   3.500000000000e+00   4.000000000000e+00 
  4.500000000000e+00 
Y_COORDINATES 10 float
  0.000000000000e+00   5.000000000000e-01   1.000000000000e+00   1.500000000000e+00   2.000000000000e+00   2.500000000000e+00   3.000000000000e+00   3.500000000000e+00   4.000000000000e+00 
  4.500000000000e+00 
Z_COORDINATES 10 float
  0.000000000000e+00   5.000000000000e-01   1.000000000000e+00   1.500000000000e+00   2.000000000000e+00   2.500000000000e+00   3.000000000000e+00   3.500000000000e+00   4.000000000000e+00 
  4.500000000000e+00 
CELL_DATA 729
POINT_DATA 1000
VECTORS velocity float
  0.000000000000e+00  -1.530831307173e-01  -2.839658558369e-01   3.251200000000e+04   0.000000000000e+00   0.000000000000e+00   0.000000000000e+00   0.000000000000e+00   0.000000000000e+00 
  1.322738826275e-01  -9.860502183437e-02  -1.819702833891e-01   0.000000000000e+00   0.000000000000e+00   0.000000000000e+00   0.000000000000e+00   1.431655808000e+09   1.070945600000e+09 
  6.926677376032e-02  -9.692851454020e-02  -1.764551103115e-01   1.071994176000e+09   0.000000000000e+00   0.000000000000e+00   0.000000000000e+00   0.000000000000e+00   0.000000000000e+00 
  5.545423924923e-02  -2.743977904320e-01  -1.957987993956e-01   0.000000000000e+00  -1.530831307173e-01  -2.839658558369e-01   1.070945600000e+09   0.000000000000e+00   0.000000000000e+00 
  4.575993865728e-02  -1.476978808641e-01  -2.549804747105e-01   1.322738826275e-01  -9.860502183437e-02  -1.819702833891e-01   1.431655808000e+09   1.070945600000e+09   0.000000000000e+00 
  1.193973049521e-01  -6.519702076912e-02  -1.434475779533e-01   6.926677376032e-02  -9.692851454020e-02  -1.764551103115e-01   0.000000000000e+00   0.000000000000e+00   1.071644672000e+09 
  5.545423924923e-02  -2.743977904320e-01  -1.957987993956e-01   5.545423924923e-02  -2.743977904320e-01  -1.957987993956e-01   0.000000000000e+00   6.645153462887e-02  -2.131089866161e-01 
  0.000000000000e+00   6.645153462887e-02  -2.131089866161e-01  -2.952611632645e-02  -2.140233665705e-01  -2.333709597588e-01   1.951574087143e-01  -2.418723106384e-01  -2.088919132948e-01 
  8.713112771511e-02  -1.822285503149e-01  -1.961688399315e-01   9.050311148167e-02  -6.553604453802e-02  -1.429049819708e-01   7.495307177305e-02   6.347091402858e-03  -1.418302655220e-01 
  8.012594282627e-02  -3.000181354582e-02  -1.382274180651e-01   6.840270757675e-02  -5.427488684654e-02  -1.475716978312e-01   6.840270757675e-02  -5.427488684654e-02  -1.475716978312e-01 
  0.000000000000e+00   7.800020277500e-02  -1.879469901323e-01   0.000000000000e+00   7.800020277500e-02  -1.879469901323e-01   8.792755752802e-02  -7.041402906179e-02  -1.834442913532e-01 
  9.835930168629e-02   8.611042983830e-03  -1.688360273838e-01   6.157509610057e-02   2.471706829965e-02  -1.533700078726e-01   1.244058832526e-01  -8.495385199785e-02  -1.485900133848e-01 
  1.918569356203e-01  -2.906885370612e-02  -1.797736585140e-01   1.117857173085e-01  -7.547113299370e-02  -1.420022547245e-01   1.566734611988e-01  -3.364723175764e-02  -1.325882822275e-01 
  1.566734611988e-01  -3.364723175764e-02  -1.325882822275e-01   0.000000000000e+00   2.135764341801e-03  -2.302402108908e-01   0.000000000000e+00   2.135764341801e-03  -2.302402108908e-01 
 -9.355249255896e-02  -1.104376390576e-01  -2.511749267578e-01   4.295375943184e-02  -2.217463031411e-02  -1.950546056032e-01   8.941093832254e-02  -2.952704764903e-02  -1.448191255331e-01 
  7.072622328997e-02  -5.345873907208e-02  -1.420322805643e-01   6.830791383982e-02   2.680395171046e-02  -1.501208096743e-01   1.358301341534e-01  -6.688509881496e-02  -1.513882428408e-01 
  1.977691799402e-01  -9.861981868744e-02  -1.786525696516e-01   1.977691799402e-01  -9.861981868744e-02  -1.786525696516e-01   0.000000000000e+00  -2.065681107342e-02  -1.911679655313e-01 
  0.000000000000e+00  -2.065681107342e-02  -1.911679655313e-01  -4.186151083559e-03  -2.077485807240e-02  -1.981404125690e-01   1.196278780699e-01   5.070558935404e-02  -1.917058825493e-01 
  1.770308911800e-01  -4.787500202656e-02  -1.875261515379e-01   5.905829370022e-02  -6.122461333871e-02  -1.479554176331e-01   3.936856985092e-02  -3.461763262749e-02  -1.411147713661e-01 
 -1.518442411907e-03  -5.947812460363e-03  -1.331397742033e-01   1.293963193893e-01   4.176076129079e-02  -1.393555700779e-01   1.293963193893e-01   4.176076129079e-02  -1.393555700779e-01 
  0.000000000000e+00  -4.929448012263e-03  -1.809768825769e-01   0.000000000000e+00  -4.929448012263e-03  -1.809768825769e-01   2.348846010864e-02  -3.310741484165e-02  -1.680672168732e-01 
  1.768473722041e-02   3.692451864481e-02  -1.515556424856e-01   1.354331672192e-01   9.414014220238e-02  -1.517608761787e-01   1.259265840054e-01   1.530736591667e-02  -1.603739410639e-01 
  1.293764710426e-01  -6.936363875866e-02  -1.885827928782e-01   1.081978455186e-01  -5.178830027580e-02  -1.431494057178e-01   1.125924587250e-01  -4.228435084224e-02  -1.387808024883e-01 
  1.125924587250e-01  -4.228435084224e-02  -1.387808024883e-01   0.000000000000e+00  -6.920465081930e-02  -1.955928951502e-01   0.000000000000e+00  -6.920465081930e-02  -1.955928951502e-01 
 -6.644163280725e-02  -2.634859271348e-02  -1.965005695820e-01   2.157074399292e-02   4.364037886262e-02  -1.431618779898e-01   1.112739965320e-01   6.781339645386e-02  -1.372409015894e-01 
  1.006640121341e-01   2.244290523231e-02  -1.403642594814e-01   1.144636347890e-01   5.241053923965e-02  -1.461957842112e-01   1.692461371422e-01  -1.448606047779e-02  -1.562368124723e-01 
  1.794760674238e-01  -2.487808465958e-02  -1.914263218641e-01   1.794760674238e-01  -2.487808465958e-02  -1.914263218641e-01   0.000000000000e+00   0.000000000000e+00  -1.570146977901e-01 
  0.000000000000e+00   0.000000000000e+00  -1.570146977901e-01  -8.723626285791e-02   0.000000000000e+00  -1.677482426167e-01   5.053858831525e-02   0.000000000000e+00  -1.511015444994e-01 
  2.827574126422e-02   0.000000000000e+00  -1.809994131327e-01   1.260510236025e-01   0.000000000000e+00  -1.370100080967e-01   9.020169824362e-02   0.000000000000e+00  -1.239049583673e-01 
  1.898397505283e-01   0.000000000000e+00  -1.216914355755e-01   2.705605626106e-01   0.000000000000e+00  -1.299816519022e-01   2.705605626106e-01   0.000000000000e+00  -1.299816519022e-01 
  0.000000000000e+00   0.000000000000e+00  -1.570146977901e-01   0.000000000000e+00   0.000000000000e+00  -1.570146977901e-01  -8.723626285791e-02   0.000000000000e+00  -1.677482426167e-01 
  5.053858831525e-02   0.000000000000e+00  -1.511015444994e-01   2.827574126422e-02   0.000000000000e+00  -1.809994131327e-01   1.260510236025e-01   0.000000000000e+00  -1.370100080967e-01 
  9.020169824362e-02   0.000000000000e+00  -1.239049583673e-01   1.898397505283e-01   0.000000000000e+00  -1.216914355755e-01   2.705605626106e-01   0.000000000000e+00  -1.299816519022e-01 
  2.705605626106e-01   0.000000000000e+00  -1.299816519022e-01   0.000000000000e+00  -1.530831307173e-01  -2.839658558369e-01   0.000000000000e+00  -1.530831307173e-01  -2.839658558369e-01 
  4.575993865728e-02  -1.476978808641e-01  -2.549804747105e-01   1.322738826275e-01  -9.860502183437e-02  -1.819702833891e-01   1.842290610075e-01  -6.637652218342e-02  -1.523315906525e-01 
  1.193973049521e-01  -6.519702076912e-02  -1.434475779533e-01   6.926677376032e-02  -9.692851454020e-02  -1.764551103115e-01   1.073055416346e-01  -1.165043562651e-01  -1.743085831404e-01 
  5.545423924923e-02  -2.743977904320e-01  -1.957987993956e-01   5.545423924923e-02  -2.743977904320e-01  -1.957987993956e-01   0.000000000000e+00  -1.530831307173e-01  -2.839658558369e-01 
  0.000000000000e+00  -1.530831307173e-01  -2.839658558369e-01   4.575993865728e-02  -1.476978808641e-01  -2.549804747105e-01   1.322738826275e-01  -9.860502183437e-02  -1.819702833891e-01 
  1.842290610075e-01  -6.637652218342e-02  -1.523315906525e-01   1.193973049521e-01  -6.519702076912e-02  -1.434475779533e-01   6.926677376032e-02  -9.692851454020e-02  -1.764551103115e-01 
  1.073055416346e-01  -1.165043562651e-01  -1.743085831404e-01   5.545423924923e-02  -2.743977904320e-01  -1.957987993956e-01   5.545423924923e-02  -2.743977904320e-01  -1.957987993956e-01 
  0.000000000000e+00   6.645153462887e-02  -2.131089866161e-01   0.000000000000e+00   6.645153462887e-02  -2.131089866161e-01  -2.952611632645e-02  -2.140233665705e-01  -2.333709597588e-01 
  1.951574087143e-01  -2.418723106384e-01  -2.088919132948e-01   8.713112771511e-02  -1.822285503149e-01  -1.961688399315e-01   9.050311148167e-02  -6.553604453802e-02  -1.429049819708e-01 
  7.495307177305e-02   6.347091402858e-03  -1.418302655220e-01   8.012594282627e-02  -3.000181354582e-02  -1.382274180651e-01   6.840270757675e-02  -5.427488684654e-02  -1.475716978312e-01 
  6.840270757675e-02  -5.427488684654e-02  -1.475716978312e-01   0.000000000000e+00   7.800020277500e-02  -1.879469901323e-01   0.000000000000e+00   7.800020277500e-02  -1.879469901323e-01 
  8.792755752802e-02  -7.041402906179e-02  -1.834442913532e-01   9.835930168629e-02   8.611042983830e-03  -1.688360273838e-01   6.157509610057e-02   2.471706829965e-02  -1.533700078726e-01 
  1.244058832526e-01  -8.495385199785e-02  -1.485900133848e-01   1.918569356203e-01  -2.906885370612e-02  -1.797736585140e-01   1.117857173085e-01  -7.547113299370e-02  -1.420022547245e-01 
  1.566734611988e-01  -3.364723175764e-02  -1.325882822275e-01   1.566734611988e-01  -3.364723175764e-02  -1.325882822275e-01   0.000000000000e+00   2.135764341801e-03  -2.302402108908e-01 
  0.000000000000e+00   2.135764341801e-03  -2.302402108908e-01  -9.355249255896e-02  -1.104376390576e-01  -2.511749267578e-01   4.295375943184e-02  -2.217463031411e-02  -1.950546056032e-01 
  8.941093832254e-02  -2.952704764903e-02  -1.448191255331e-01   7.072622328997e-02  -5.345873907208e-02  -1.420322805643e-01   6.830791383982e-02   2.680395171046e-02  -1.501208096743e-01 
  1.358301341534e-01  -6.688509881496e-02  -1.513882428408e-01   1.977691799402e-01  -9.861981868744e-02  -1.786525696516e-01   1.977691799402e-01  -9.861981868744e-02  -1.786525696516e-01 
  0.000000000000e+00  -2.065681107342e-02  -1.911679655313e-01   0.000000000000e+00  -2.065681107342e-02  -1.911679655313e-01  -4.186151083559e-03  -2.077485807240e-02  -1.981404125690e-01 
  1.196278780699e-01   5.070558935404e-02  -1.917058825493e-01   1.770308911800e-01  -4.787500202656e-02  -1.875261515379e-01   5.905829370022e-02  -6.122461333871e-02  -1.479554176331e-01 
  3.936856985092e-02  -3.461763262749e-02  -1.411147713661e-01  -1.518442411907e-03  -5.947812460363e-03  -1.331397742033e-01   1.293963193893e-01   4.176076129079e-02  -1.393555700779e-01 
  1.293963193893e-01   4.176076129079e-02  -1.393555700779e-01   0.000000000000e+00  -4.929448012263e-03  -1.809768825769e-01   0.000000000000e+00  -4.929448012263e-03  -1.809768825769e-01 
  2.348846010864e-02  -3.310741484165e-02  -1.680672168732e-01   1.768473722041e-02   3.692451864481e-02  -1.515556424856e-01   1.354331672192e-01   9.414014220238e-02  -1.517608761787e-01 
  1.259265840054e-01   1.530736591667e-02  -1.603739410639e-01   1.293764710426e-01  -6.936363875866e-02  -1.885827928782e-01   1.081978455186e-01  -5.178830027580e-02  -1.431494057178e-01 
  1.125924587250e-01  -4.228435084224e-02  -1.387808024883e-01   1.125924587250e-01  -4.228435084224e-02  -1.387808024883e-01   0.000000000000e+00  -6.920465081930e-02  -1.955928951502e-01 
  0.000000000000e+00  -6.920465081930e-02  -1.955928951502e-01  -6.644163280725e-02  -2.634859271348e-02  -1.965005695820e-01   2.157074399292e-02   4.364037886262e-02  -1.431618779898e-01 
  1.112739965320e-01   6.781339645386e-02  -1.372409015894e-01   1.006640121341e-01   2.244290523231e-02  -1.403642594814e-01   1.144636347890e-01   5.241053923965e-02  -1.461957842112e-01 
  1.692461371422e-01  -1.448606047779e-02  -1.562368124723e-01   1.794760674238e-01  -2.487808465958e-02  -1.914263218641e-01   1.794760674238e-01  -2.487808465958e-02  -1.914263218641e-01 
  0.000000000000e+00   0.000000000000e+00  -1.570146977901e-01   0.000000000000e+00   0.000000000000e+00  -1.570146977901e-01  -8.723626285791e-02   0.000000000000e+00  -1.677482426167e-01 
  5.053858831525e-02   0.000000000000e+00  -1.511015444994e-01   2.827574126422e-02   0.000000000000e+00  -1.809994131327e-01   1.260510236025e-01   0.000000000000e+00  -1.370100080967e-01 
  9.020169824362e-02   0.000000000000e+00  -1.239049583673e-01   1.898397505283e-01   0.000000000000e+00  -1.216914355755e-01   2.705605626106e-01   0.000000000000e+00  -1.299816519022e-01 
  2.705605626106e-01   0.000000000000e+00  -1.299816519022e-01   0.000000000000e+00   0.000000000000e+00  -1.570146977901e-01   0.000000000000e+00   0.000000000000e+00  -1.570146977901e-01 
 -8.723626285791e-02   0.000000000000e+00  -1.677482426167e-01   5.053858831525e-02   0.000000000000e+00  -1.511015444994e-01   2.827574126422e-02   0.000000000000e+00  -1.809994131327e-01 
  1.260510236025e-01   0.000000000000e+00  -1.370100080967e-01   9.020169824362e-02   0.000000000000e+00  -1.239049583673e-01   1.898397505283e-01   0.000000000000e+00  -1.216914355755e-01 
  2.705605626106e-01   0.000000000000e+00  -1.299816519022e-01   2.705605626106e-01   0.000000000000e+00  -1.299816519022e-01   0.000000000000e+00  -1.851009726524e-01  -1.644073963165e+00 
  0.000000000000e+00  -1.851009726524e-01  -1.644073963165e+00  -5.110467597842e-02  -5.667535066605e-01  -1.149554252625e+00   3.669087886810e-01  -2.012982368469e-01  -8.909073472023e-01 
  6.167211532593e-01   1.041676774621e-01  -6.289669275284e-01   3.055042922497e-01   1.533484202810e-03  -6.027887463570e-01  -3.214472532272e-01  -6.341530941427e-03  -7.170993089676e-01 
 -2.026001960039e-01  -4.544694442302e-03  -4.942687451839e-01   0.000000000000e+00  -1.205898076296e-01  -4.201194271445e-03   0.000000000000e+00  -1.205898076296e-01  -4.201194271445e-03 
  0.000000000000e+00  -1.851009726524e-01  -1.644073963165e+00   0.000000000000e+00  -1.851009726524e-01  -1.644073963165e+00  -5.110467597842e-02  -5.667535066605e-01  -1.149554252625e+00 
  3.669087886810e-01  -2.012982368469e-01  -8.909073472023e-01   6.167211532593e-01   1.041676774621e-01  -6.289669275284e-01   3.055042922497e-01   1.533484202810e-03  -6.027887463570e-01 
 -3.214472532272e-01  -6.341530941427e-03  -7.170993089676e-01  -2.026001960039e-01  -4.544694442302e-03  -4.942687451839e-01   0.000000000000e+00  -1.205898076296e-01  -4.201194271445e-03 
  0.000000000000e+00  -1.205898076296e-01  -4.201194271445e-03   0.000000000000e+00   2.167456969619e-02  -7.751454114914e-01   0.000000000000e+00   2.167456969619e-02  -7.751454114914e-01 
  3.862265497446e-02  -1.886321604252e-01  -8.895239233971e-01   3.386084735394e-01  -1.067737266421e-01  -6.666200757027e-01   5.880061388016e-01   1.752450764179e-01  -5.848253965378e-01 
  6.334525346756e-01  -8.888864540495e-04  -2.763933539391e-01  -6.252329796553e-02   1.125055328012e-01  -4.081591665745e-01  -2.881272882223e-02   1.776308007538e-02  -5.078543424606e-01 
  5.588000640273e-02  -4.643145203590e-02  -5.242830514908e-02   5.588000640273e-02  -4.643145203590e-02  -5.242830514908e-02   0.000000000000e+00   6.881413608789e-02  -6.893151402473e-01 
  0.000000000000e+00   6.881413608789e-02  -6.893151402473e-01   2.236105054617e-01   1.168373450637e-01  -7.708774209023e-01   1.277221590281e-01  -2.645530924201e-02  -9.040656089783e-01 
  2.613920867443e-01  -1.816885620356e-01  -1.029494524002e+00  -1.334231197834e-01  -6.981122773141e-03  -3.973599672318e-01  -8.026673644781e-02   2.278802450746e-03  -3.667180240154e-01 
  8.741320669651e-02  -6.150445342064e-02  -5.799774453044e-02   1.569880098104e-01  -3.445800021291e-02  -6.741172075272e-02   1.569880098104e-01  -3.445800021291e-02  -6.741172075272e-02 
  0.000000000000e+00  -1.804947853088e-02  -9.558368921280e-01   0.000000000000e+00  -1.804947853088e-02  -9.558368921280e-01  -1.784415944712e-04   7.649864256382e-02  -1.121733307838e+00 
 -7.925409078598e-01   2.273585414514e-03  -1.243048429489e+00   2.311801761389e-01   7.210006564856e-02  -7.690407633781e-01  -6.531958580017e-01   2.769516706467e-01  -7.161559462547e-01 
 -5.299062728882e-01   1.194472163916e-01  -7.330898642540e-01  -2.151120081544e-02  -3.960562869906e-02  -5.077197551727e-01   1.895015686750e-01  -9.748079627752e-02  -2.134742587805e-02 
  1.895015686750e-01  -9.748079627752e-02  -2.134742587805e-02   0.000000000000e+00   9.058146737516e-03  -8.923724293709e-01   0.000000000000e+00   9.058146737516e-03  -8.923724293709e-01 
 -2.154977172613e-01   5.092206969857e-02  -9.207004904747e-01  -2.335862070322e-02   9.039793908596e-02  -9.450262188911e-01   7.947716712952e-01   8.596435934305e-02  -6.855273246765e-01 
  2.651305794716e-01   4.527898132801e-01  -7.747254371643e-01  -1.351967751980e-01   1.286865174770e-01  -6.553595662117e-01  -3.270944952965e-02   2.075191773474e-02  -5.263612866402e-01 
  1.067440062761e-01   4.075213521719e-02  -6.064442545176e-02   1.067440062761e-01   4.075213521719e-02  -6.064442545176e-02   0.000000000000e+00   1.177364774048e-02  -5.242312550545e-01 
  0.000000000000e+00   1.177364774048e-02  -5.242312550545e-01  -2.946255728602e-02   4.885890483856e-01  -1.151810169220e+00   1.434184610844e-01   1.783383488655e-01  -1.120376110077e+00 
  4.313982725143e-01  -7.742147147655e-02  -8.887497186661e-01   4.958072304726e-01  -1.102372654714e-03  -9.820312857628e-01  -4.919318854809e-01  -4.112839698792e-02  -5.977846980095e-01 
 -3.604777529836e-02  -3.157117590308e-02  -9.779620170593e-01   0.000000000000e+00  -4.007810354233e-02  -6.121920049191e-02   0.000000000000e+00  -4.007810354233e-02  -6.121920049191e-02 
  0.000000000000e+00   1.012449711561e-01  -6.082506775856e-01   0.000000000000e+00   1.012449711561e-01  -6.082506775856e-01   2.056392431259e-01   3.197340369225e-01  -1.422981142998e+00 
  3.365893065929e-01   4.361495748162e-02  -1.344015121460e+00   3.652193248272e-01  -7.982860505581e-02  -1.260552167892e+00   5.107344686985e-02   9.183531999588e-02  -1.123718023300e+00 
  2.845169901848e-01   2.306239604950e-01  -4.635953605175e-01   2.114181965590e-01   5.830397829413e-02  -1.068821787834e+00   1.533811837435e-01  -1.414209604263e-02  -8.573680184782e-03 
  1.533811837435e-01  -1.414209604263e-02  -8.573680184782e-03   0.000000000000e+00   0.000000000000e+00  -4.795948863029e-01   0.000000000000e+00   0.000000000000e+00  -4.795948863029e-01 
  2.063184231520e-01   2.831633947790e-02   4.668443650007e-02   2.026363909245e-01   2.460937481374e-03  -4.889845475554e-02   3.867947459221e-01   0.000000000000e+00  -1.340977668762e+00 
 -4.810768738389e-02   0.000000000000e+00   1.523058116436e-01   3.015281446278e-02   0.000000000000e+00   2.083334773779e-01   4.957124292850e-01   1.090660109185e-03  -7.830855995417e-02 
  2.652603983879e-01   2.654085437825e-05  -7.001835107803e-02   2.652603983879e-01   2.654085437825e-05  -7.001835107803e-02   0.000000000000e+00   0.000000000000e+00  -4.795948863029e-01 
  0.000000000000e+00   0.000000000000e+00  -4.795948863029e-01   2.063184231520e-01   2.831633947790e-02   4.668443650007e-02   2.026363909245e-01   2.460937481374e-03  -4.889845475554e-02 
  3.867947459221e-01   0.000000000000e+00  -1.340977668762e+00  -4.810768738389e-02   0.000000000000e+00   1.523058116436e-01   3.015281446278e-02   0.000000000000e+00   2.083334773779e-01 
  4.957124292850e-01   1.090660109185e-03  -7.830855995417e-02   2.652603983879e-01   2.654085437825e-05  -7.001835107803e-02   2.652603983879e-01   2.654085437825e-05  -7.001835107803e-02 
  0.000000000000e+00  -3.803504258394e-02  -1.977994889021e-01   0.000000000000e+00  -3.803504258394e-02  -1.977994889021e-01  -2.707262635231e-01  -2.901877164841e-01  -5.235916972160e-01 
 -3.586957454681e-01  -1.282404363155e-01  -6.325489282608e-01   9.099507927895e-01  -3.759332895279e-01  -6.167158484459e-01   8.777932524681e-01  -2.058071792126e-01  -5.262368321419e-01 
 -2.620237171650e-01   5.308200046420e-02  -4.866582155228e-01  -2.620237171650e-01   1.273561362177e-02  -5.460817217827e-01   0.000000000000e+00  -7.995458692312e-02  -1.000000014901e-01 
  0.000000000000e+00  -7.995458692312e-02  -1.000000014901e-01   0.000000000000e+00  -3.803504258394e-02  -1.977994889021e-01   0.000000000000e+00  -3.803504258394e-02  -1.977994889021e-01 
 -2.707262635231e-01  -2.901877164841e-01  -5.235916972160e-01  -3.586957454681e-01  -1.282404363155e-01  -6.325489282608e-01   9.099507927895e-01  -3.759332895279e-01  -6.167158484459e-01 
  8.777932524681e-01  -2.058071792126e-01  -5.262368321419e-01  -2.620237171650e-01   5.308200046420e-02  -4.866582155228e-01  -2.620237171650e-01   1.273561362177e-02  -5.460817217827e-01 
  0.000000000000e+00  -7.995458692312e-02  -1.000000014901e-01   0.000000000000e+00  -7.995458692312e-02  -1.000000014901e-01   0.000000000000e+00  -1.424871236086e-01  -2.549743652344e-01 
  0.000000000000e+00  -1.424871236086e-01  -2.549743652344e-01  -3.112719357014e-01   2.546982467175e-02  -4.882443547249e-01  -5.722901821136e-01  -3.107105195522e-01  -5.431472063065e-01 
  8.095430731773e-01  -5.921182632446e-01  -3.528819382191e-01   8.273395299911e-01  -4.224643409252e-01  -1.576586812735e-01   7.369015812874e-01   7.337998598814e-02  -3.410030603409e-01 
  4.601104557514e-01   3.270875290036e-02  -4.552018940449e-01   5.560777336359e-02  -3.301009163260e-02  -9.112473577261e-02   5.560777336359e-02  -3.301009163260e-02  -9.112473577261e-02 
  0.000000000000e+00  -6.318467785604e-04  -3.897494077682e-01   0.000000000000e+00  -6.318467785604e-04  -3.897494077682e-01   1.918334066868e-01   1.584738194942e-01   1.259726751596e-02 
  1.537805199623e-01  -3.814250603318e-02  -6.266320943832e-01   4.344543218613e-01  -6.839892268181e-01  -5.274866223335e-01   3.892934918404e-01  -4.635421037674e-01  -5.425807833672e-01 
  0.000000000000e+00   3.318040445447e-02  -1.000000014901e-01   0.000000000000e+00   2.101534791291e-02  -1.000000014901e-01   0.000000000000e+00  -3.409328684211e-02  -1.000000014901e-01 
  0.000000000000e+00  -3.409328684211e-02  -1.000000014901e-01   0.000000000000e+00   7.863588631153e-02  -3.439775109291e-01   0.000000000000e+00   7.863588631153e-02  -3.439775109291e-01 
  5.112948268652e-02   7.328834384680e-02   1.740614650771e-03  -1.068113073707e-01   5.352351814508e-02  -4.135948121548e-01   3.588572144508e-01  -6.787108629942e-02  -7.637901306152e-01 
  8.860128372908e-02   9.159885346889e-02  -7.636657357216e-01   5.931047350168e-02   8.755783736706e-02  -7.475118637085e-01   3.341879323125e-02   3.863263502717e-02  -5.745253562927e-01 
  1.512256860733e-01  -7.896017283201e-02  -6.356206536293e-02   1.512256860733e-01  -7.896017283201e-02  -6.356206536293e-02   0.000000000000e+00   7.226770394482e-04  -2.449463009834e-01 
  0.000000000000e+00   7.226770394482e-04  -2.449463009834e-01   5.112287122756e-03   1.032455116510e-01  -1.052001789212e-01  -1.530663073063e-01   1.349512338638e-01  -3.387823700905e-01 
  3.633833527565e-01  -1.085357069969e-01  -4.789735078812e-01   3.685547411442e-01   2.817305922508e-01  -7.641562223434e-01  -4.411413148046e-02   1.635680645704e-01  -8.044202923775e-01 
  2.648715116084e-02   6.456273794174e-02  -6.136539578438e-01   8.907868713140e-02   4.309780895710e-02  -1.308125555515e-01   8.907868713140e-02   4.309780895710e-02  -1.308125555515e-01 
  0.000000000000e+00   6.682732701302e-02  -4.235498309135e-01   0.000000000000e+00   6.682732701302e-02  -4.235498309135e-01  -1.776650249958e-01   2.988404929638e-01  -5.966089367867e-01 
 -5.084973573685e-01   2.385894209146e-01  -7.026472091675e-01   2.455232590437e-01   1.198238134384e-01  -3.455478250980e-01   4.030429720879e-01   6.732607632875e-02  -6.241796612740e-01 
  1.015590950847e-01   2.085957229137e-01  -3.439836204052e-01   2.350673526525e-01   6.044035777450e-02  -6.621455550194e-01   7.470656931400e-02  -1.123358961195e-02  -2.334233969450e-01 
  7.470656931400e-02  -1.123358961195e-02  -2.334233969450e-01   0.000000000000e+00   1.260601449758e-02  -3.985991775990e-01   0.000000000000e+00   1.260601449758e-02  -3.985991775990e-01 
  1.841734051704e-01   1.183526813984e-01  -5.731081962585e-01   5.103389024734e-01   5.531889200211e-02  -7.456388473511e-01   4.208239018917e-01   6.746157538146e-03  -7.456388473511e-01 
  5.485953092575e-01   5.182610079646e-02  -4.218464195728e-01   6.660632491112e-01   5.635759234428e-02  -6.923840641975e-01   7.433329820633e-01   4.351101815701e-02  -8.054027557373e-01 
  0.000000000000e+00   9.595659561455e-03  -1.000000014901e-01   0.000000000000e+00   9.595659561455e-03  -1.000000014901e-01   0.000000000000e+00   0.000000000000e+00  -2.899716198444e-01 
  0.000000000000e+00   0.000000000000e+00  -2.899716198444e-01   8.654070645571e-02   0.000000000000e+00  -4.122664034367e-01   1.859458982944e-01   0.000000000000e+00  -1.158388972282e+00 
  6.193524003029e-01   0.000000000000e+00   1.996270120144e-01   6.080240011215e-01   0.000000000000e+00   1.996270120144e-01   8.350476622581e-01   0.000000000000e+00  -2.714671194553e-01 
  8.629645705223e-01   8.747396350373e-05  -2.712636888027e-01   6.568236351013e-01   6.524323543999e-05  -1.391504108906e-01   6.568236351013e-01   6.524323543999e-05  -1.391504108906e-01 
  0.000000000000e+00   0.000000000000e+00  -2.899716198444e-01   0.000000000000e+00   0.000000000000e+00  -2.899716198444e-01   8.654070645571e-02   0.000000000000e+00  -4.122664034367e-01 
  1.859458982944e-01   0.000000000000e+00  -1.158388972282e+00   6.193524003029e-01   0.000000000000e+00   1.996270120144e-01   6.080240011215e-01   0.000000000000e+00   1.996270120144e-01 
  8.350476622581e-01   0.000000000000e+00  -2.714671194553e-01   8.629645705223e-01   8.747396350373e-05  -2.712636888027e-01   6.568236351013e-01   6.524323543999e-05  -1.391504108906e-01 
  6.568236351013e-01   6.524323543999e-05  -1.391504108906e-01   0.000000000000e+00   5.966534465551e-02  -3.727507293224e-01   0.000000000000e+00   5.966534465551e-02  -3.727507293224e-01 
 -1.536049693823e-02  -6.421933416277e-03  -8.645451664925e-01  -5.529497265816e-01  -9.437320381403e-02  -1.544207483530e-01   1.048710942268e+00   3.941360116005e-02   1.375019270927e-02 
  8.889384269714e-01   0.000000000000e+00  -5.988380685449e-02   6.942647099495e-01   3.661785274744e-02  -4.777137041092e-01   3.238233327866e-01   2.452879957855e-02  -5.606750845909e-01 
  1.715434938669e-01  -3.481631726027e-02  -2.780463099480e-01   1.715434938669e-01  -3.481631726027e-02  -2.780463099480e-01   0.000000000000e+00   5.966534465551e-02  -3.727507293224e-01 
  0.000000000000e+00   5.966534465551e-02  -3.727507293224e-01  -1.536049693823e-02  -6.421933416277e-03  -8.645451664925e-01  -5.529497265816e-01  -9.437320381403e-02  -1.544207483530e-01 
  1.048710942268e+00   3.941360116005e-02   1.375019270927e-02   8.889384269714e-01   0.000000000000e+00  -5.988380685449e-02   6.942647099495e-01   3.661785274744e-02  -4.777137041092e-01 
  3.238233327866e-01   2.452879957855e-02  -5.606750845909e-01   1.715434938669e-01  -3.481631726027e-02  -2.780463099480e-01   1.715434938669e-01  -3.481631726027e-02  -2.780463099480e-01 
  0.000000000000e+00   1.082308217883e-01  -4.596868157387e-01   0.000000000000e+00   1.082308217883e-01  -4.596868157387e-01  -1.734436452389e-01  -7.634212821722e-02  -4.351964890957e-01 
 -9.298119544983e-01  -1.477660685778e-01  -2.900536358356e-01   8.459259271622e-01  -2.235263437033e-01  -7.633256316185e-01   8.394333720207e-01  -1.592145562172e-01  -5.829226374626e-01 
  5.736142992973e-01   1.457375567406e-02  -1.159187197685e+00   5.736142992973e-01   1.294990722090e-02  -1.153753399849e+00   2.916556894779e-01  -1.006002165377e-02  -5.053619146347e-01 
  2.916556894779e-01  -1.006002165377e-02  -5.053619146347e-01   0.000000000000e+00   1.046989634633e-01  -6.031450629234e-01   0.000000000000e+00   1.046989634633e-01  -6.031450629234e-01 
  6.333114206791e-02  -9.248558431864e-02  -5.150791406631e-01  -5.247828364372e-01  -2.355939894915e-01  -9.230704903603e-01   1.127861291170e-01  -3.865261971951e-01  -5.713436603546e-01 
  8.732749819756e-01   4.090712964535e-02  -9.601870775223e-01   5.295585989952e-01   3.536422178149e-02  -1.191964149475e+00   6.176700592041e-01   0.000000000000e+00  -1.147908449173e+00 
  0.000000000000e+00  -9.902578778565e-03  -1.000000014901e-01   0.000000000000e+00  -9.902578778565e-03  -1.000000014901e-01   0.000000000000e+00  -8.628728240728e-02  -3.708904385567e-01 
  0.000000000000e+00  -8.628728240728e-02  -3.708904385567e-01   2.301129698753e-02  -3.093574754894e-02  -2.546553313732e-01  -1.060105934739e-01  -6.786605715752e-02  -3.438862860203e-01 
  1.099131107330e-01  -4.320299625397e-01  -2.415424585342e-01   6.728945672512e-02   7.941994071007e-02  -2.570985853672e-01   0.000000000000e+00   1.234756559134e-01  -9.382726550102e-01 
  0.000000000000e+00   0.000000000000e+00  -1.028451442719e+00   1.505987904966e-02  -1.537206768990e-02  -4.384860694408e-01   1.505987904966e-02  -1.537206768990e-02  -4.384860694408e-01 
  0.000000000000e+00   1.738969236612e-01  -3.832765817642e-01   0.000000000000e+00   1.738969236612e-01  -3.832765817642e-01   6.444144248962e-02   1.271858513355e-01  -3.626251220703e-01 
  8.089707791805e-02  -1.090715825558e-01  -4.674562215805e-01   2.856514155865e-01  -4.746536314487e-01  -8.620348572731e-01   8.860128372908e-02  -2.146925479174e-01  -9.374231100082e-01 
  4.850472882390e-02   9.448220580816e-02  -4.529790282249e-01   1.208206564188e-01   4.799408838153e-02  -5.648833513260e-01   1.121722832322e-01   3.241043537855e-02  -2.618057727814e-01 