# vtk DataFile Version 2.0
Written using VisIt writer
ASCII
DATASET RECTILINEAR_GRID
DIMENSIONS 10 10 10
X_COORDINATES 10 float
  0.000000000000e+00   5.000000000000e-01   1.000000000000e+00   1.500000000000e+00   2.000000000000e+00   2.500000000000e+00   3.000000000000e+00   3.500000000000e+00   4.000000000000e+00 
  4.500000000000e+00 
Y_COORDINATES 10 float
  0.000000000000e+00   5.000000000000e-01   1.000000000000e+00   1.500000000000e+00   2.000000000000e+00   2.500000000000e+00   3.000000000000e+00   3.500000000000e+00   4.000000000000e+00 
  4.500000000000e+00 
Z_COORDINATES 10 float
  0.000000000000e+00   5.000000000000e-01   1.000000000000e+00   1.500000000000e+00   2.000000000000e+00   2.500000000000e+00   3.000000000000e+00   3.500000000000e+00   4.000000000000e+00 
  4.500000000000e+00 
CELL_DATA 729
POINT_DATA 1000
VECTORS velocity float
  0.000000000000e+00  -1.416297405958e-01  -3.554518520832e-01   1.750000000000e+00   0.000000000000e+00   1.750000000000e+00  -5.816088394553e-28   1.019658565521e+00  -4.316173614070e-35 
  7.664499431849e-02  -1.469138860703e-01  -3.466739058495e-01  -1.052202033997e+01   1.750203251839e+00   0.000000000000e+00   1.750000000000e+00   0.000000000000e+00   1.750000000000e+00 
 -9.134487062693e-02  -1.404927968979e-01  -3.718047142029e-01  -1.516096591949e+00                  nan  -1.615736484528e+00  -2.539590778880e+12   1.750158905983e+00   0.000000000000e+00 
 -7.658385485411e-02  -1.676151752472e-01  -3.875014781952e-01   0.000000000000e+00  -1.416297405958e-01  -3.554518520832e-01  -1.514639854431e+00  -1.150439977301e-35  -1.775111556053e+00 
 -1.413937378675e-02  -1.652782410383e-01  -3.610048592091e-01   7.664499431849e-02  -1.469138860703e-01  -3.466739058495e-01  -5.816088394553e-28   1.019658565521e+00  -4.316173614070e-35 
  4.111926071346e-03  -1.167798787355e-01  -3.514974713326e-01  -9.134487062693e-02  -1.404927968979e-01  -3.718047142029e-01   1.750000000000e+00   0.000000000000e+00   1.750000000000e+00 
 -7.658385485411e-02  -1.676151752472e-01  -3.875014781952e-01  -7.658385485411e-02  -1.676151752472e-01  -3.875014781952e-01   0.000000000000e+00   1.066859886050e-01  -3.395342528820e-01 
  0.000000000000e+00   1.066859886050e-01  -3.395342528820e-01  -7.896579056978e-02   5.963791534305e-02  -3.585516214371e-01  -5.726995877922e-03  -1.805321499705e-02  -3.584776520729e-01 
 -3.051245957613e-02  -4.047600924969e-02  -3.661917448044e-01   6.930013746023e-02   8.533842861652e-03  -3.462787270546e-01  -3.338655456901e-02   5.790948867798e-02  -3.536068201065e-01 
  2.926650643349e-02   1.216361448169e-01  -3.567571938038e-01  -6.357485800982e-02   1.370041519403e-01  -3.731895685196e-01  -6.357485800982e-02   1.370041519403e-01  -3.731895685196e-01 
  0.000000000000e+00  -6.813368760049e-03  -3.352770209312e-01   0.000000000000e+00  -6.813368760049e-03  -3.352770209312e-01  -4.019235447049e-02   2.146019414067e-02  -3.431501090527e-01 
  4.143106192350e-02   6.937167793512e-02  -3.518731594086e-01  -4.789910838008e-02   4.320277273655e-02  -3.672397136688e-01  -3.601168841124e-02  -7.180649787188e-02  -3.624594807625e-01 
 -9.301671385765e-02  -1.220938563347e-01  -3.850112855434e-01   8.623805642128e-02  -3.768133744597e-02  -3.566425144672e-01  -5.410972237587e-02  -3.078106977046e-02  -3.652564883232e-01 
 -5.410972237587e-02  -3.078106977046e-02  -3.652564883232e-01   0.000000000000e+00  -6.386344134808e-02  -3.460636138916e-01   0.000000000000e+00  -6.386344134808e-02  -3.460636138916e-01 
 -1.088527143002e-01  -1.266111731529e-01  -3.770641088486e-01   1.094902008772e-01  -3.731158003211e-02  -3.479879796505e-01  -1.079452224076e-02  -1.676066895016e-03  -3.521091043949e-01 
  3.908264264464e-02   6.656482070684e-02  -3.511566519737e-01  -5.791461095214e-02   8.310015499592e-02  -3.704455196857e-01  -5.178454518318e-02  -6.796344369650e-02  -3.695617020130e-01 
 -1.226848140359e-01  -1.323558390141e-01  -3.901813328266e-01  -1.226848140359e-01  -1.323558390141e-01  -3.901813328266e-01   0.000000000000e+00   6.994970887899e-02  -3.353034257889e-01 
  0.000000000000e+00   6.994970887899e-02  -3.353034257889e-01  -6.105984374881e-02   9.569410234690e-02  -3.569738566875e-01  -4.710688441992e-02  -7.195713371038e-02  -3.623324930668e-01 
 -7.337219268084e-02  -1.180477440357e-01  -3.789386749268e-01   9.678672254086e-02  -3.995591402054e-02  -3.485759496689e-01  -4.987483378500e-03   1.197364274412e-02  -3.543899059296e-01 
  2.860623411834e-02   8.135768026114e-02  -3.558374047279e-01  -6.270224601030e-02   1.276707798243e-01  -3.720583319664e-01  -6.270224601030e-02   1.276707798243e-01  -3.720583319664e-01 
  0.000000000000e+00  -4.077825695276e-02  -3.322183489799e-01   0.000000000000e+00  -4.077825695276e-02  -3.322183489799e-01  -1.998286135495e-02   5.858816206455e-03  -3.397186100483e-01 
  3.886540606618e-02   7.966137677431e-02  -3.492462933064e-01  -6.033263728023e-02   7.799994200468e-02  -3.673195242882e-01  -4.615150764585e-02  -7.731802761555e-02  -3.666991591454e-01 
 -5.303186923265e-02  -1.102294102311e-01  -3.778674304485e-01   6.171057373285e-02  -5.586972460151e-02  -3.539963662624e-01  -6.217333674431e-02  -4.970826581120e-02  -3.611054122448e-01 
 -6.217333674431e-02  -4.970826581120e-02  -3.611054122448e-01   0.000000000000e+00  -1.116215512156e-01  -3.546538054943e-01   0.000000000000e+00  -1.116215512156e-01  -3.546538054943e-01 
 -6.747248023748e-02  -1.338809579611e-01  -3.729318976402e-01   1.137593090534e-01  -4.372111987323e-03  -3.470603525639e-01  -7.014133501798e-03   4.524540156126e-02  -3.515296280384e-01 
  4.472400248051e-02   8.815871924162e-02  -3.522311747074e-01  -6.581564992666e-02   5.316716060042e-02  -3.706991076469e-01  -7.484521716833e-02  -1.085627749562e-01  -3.738388121128e-01 
 -1.201077625155e-01  -1.852063387632e-01  -4.014625847340e-01  -1.201077625155e-01  -1.852063387632e-01  -4.014625847340e-01   0.000000000000e+00   0.000000000000e+00  -3.419389426708e-01 
  0.000000000000e+00   0.000000000000e+00  -3.419389426708e-01  -8.983568102121e-02   0.000000000000e+00  -3.608550131321e-01  -3.057156689465e-02   0.000000000000e+00  -3.529168069363e-01 
 -6.530486047268e-02   0.000000000000e+00  -3.654341995716e-01   1.755219399929e-01   0.000000000000e+00  -3.470098376274e-01   1.301366928965e-02   0.000000000000e+00  -3.655408918858e-01 
  3.641818650067e-03   0.000000000000e+00  -3.630538880825e-01  -7.535353302956e-03   0.000000000000e+00  -3.756624460220e-01  -7.535353302956e-03   0.000000000000e+00  -3.756624460220e-01 
  0.000000000000e+00   0.000000000000e+00  -3.419389426708e-01   0.000000000000e+00   0.000000000000e+00  -3.419389426708e-01  -8.983568102121e-02   0.000000000000e+00  -3.608550131321e-01 
 -3.057156689465e-02   0.000000000000e+00  -3.529168069363e-01  -6.530486047268e-02   0.000000000000e+00  -3.654341995716e-01   1.755219399929e-01   0.000000000000e+00  -3.470098376274e-01 
  1.301366928965e-02   0.000000000000e+00  -3.655408918858e-01   3.641818650067e-03   0.000000000000e+00  -3.630538880825e-01  -7.535353302956e-03   0.000000000000e+00  -3.756624460220e-01 
 -7.535353302956e-03   0.000000000000e+00  -3.756624460220e-01   0.000000000000e+00  -1.416297405958e-01  -3.554518520832e-01   0.000000000000e+00  -1.416297405958e-01  -3.554518520832e-01 
 -1.413937378675e-02  -1.652782410383e-01  -3.610048592091e-01   7.664499431849e-02  -1.469138860703e-01  -3.466739058495e-01   4.610325675458e-03  -1.435973346233e-01  -3.492664694786e-01 
  4.111926071346e-03  -1.167798787355e-01  -3.514974713326e-01  -9.134487062693e-02  -1.404927968979e-01  -3.718047142029e-01  -2.006120979786e-02  -1.429044157267e-01  -3.723784387112e-01 
 -7.658385485411e-02  -1.676151752472e-01  -3.875014781952e-01  -7.658385485411e-02  -1.676151752472e-01  -3.875014781952e-01   0.000000000000e+00  -1.416297405958e-01  -3.554518520832e-01 
  0.000000000000e+00  -1.416297405958e-01  -3.554518520832e-01  -1.413937378675e-02  -1.652782410383e-01  -3.610048592091e-01   7.664499431849e-02  -1.469138860703e-01  -3.466739058495e-01 
  4.610325675458e-03  -1.435973346233e-01  -3.492664694786e-01   4.111926071346e-03  -1.167798787355e-01  -3.514974713326e-01  -9.134487062693e-02  -1.404927968979e-01  -3.718047142029e-01 
 -2.006120979786e-02  -1.429044157267e-01  -3.723784387112e-01  -7.658385485411e-02  -1.676151752472e-01  -3.875014781952e-01  -7.658385485411e-02  -1.676151752472e-01  -3.875014781952e-01 
  0.000000000000e+00   1.066859886050e-01  -3.395342528820e-01   0.000000000000e+00   1.066859886050e-01  -3.395342528820e-01  -7.896579056978e-02   5.963791534305e-02  -3.585516214371e-01 
 -5.726995877922e-03  -1.805321499705e-02  -3.584776520729e-01  -3.051245957613e-02  -4.047600924969e-02  -3.661917448044e-01   6.930013746023e-02   8.533842861652e-03  -3.462787270546e-01 
 -3.338655456901e-02   5.790948867798e-02  -3.536068201065e-01   2.926650643349e-02   1.216361448169e-01  -3.567571938038e-01  -6.357485800982e-02   1.370041519403e-01  -3.731895685196e-01 
 -6.357485800982e-02   1.370041519403e-01  -3.731895685196e-01   0.000000000000e+00  -6.813368760049e-03  -3.352770209312e-01   0.000000000000e+00  -6.813368760049e-03  -3.352770209312e-01 
 -4.019235447049e-02   2.146019414067e-02  -3.431501090527e-01   4.143106192350e-02   6.937167793512e-02  -3.518731594086e-01  -4.789910838008e-02   4.320277273655e-02  -3.672397136688e-01 
 -3.601168841124e-02  -7.180649787188e-02  -3.624594807625e-01  -9.301671385765e-02  -1.220938563347e-01  -3.850112855434e-01   8.623805642128e-02  -3.768133744597e-02  -3.566425144672e-01 
 -5.410972237587e-02  -3.078106977046e-02  -3.652564883232e-01  -5.410972237587e-02  -3.078106977046e-02  -3.652564883232e-01   0.000000000000e+00  -6.386344134808e-02  -3.460636138916e-01 
  0.000000000000e+00  -6.386344134808e-02  -3.460636138916e-01  -1.088527143002e-01  -1.266111731529e-01  -3.770641088486e-01   1.094902008772e-01  -3.731158003211e-02  -3.479879796505e-01 
 -1.079452224076e-02  -1.676066895016e-03  -3.521091043949e-01   3.908264264464e-02   6.656482070684e-02  -3.511566519737e-01  -5.791461095214e-02   8.310015499592e-02  -3.704455196857e-01 
 -5.178454518318e-02  -6.796344369650e-02  -3.695617020130e-01  -1.226848140359e-01  -1.323558390141e-01  -3.901813328266e-01  -1.226848140359e-01  -1.323558390141e-01  -3.901813328266e-01 
  0.000000000000e+00   6.994970887899e-02  -3.353034257889e-01   0.000000000000e+00   6.994970887899e-02  -3.353034257889e-01  -6.105984374881e-02   9.569410234690e-02  -3.569738566875e-01 
 -4.710688441992e-02  -7.195713371038e-02  -3.623324930668e-01  -7.337219268084e-02  -1.180477440357e-01  -3.789386749268e-01   9.678672254086e-02  -3.995591402054e-02  -3.485759496689e-01 
 -4.987483378500e-03   1.197364274412e-02  -3.543899059296e-01   2.860623411834e-02   8.135768026114e-02  -3.558374047279e-01  -6.270224601030e-02   1.276707798243e-01  -3.720583319664e-01 
 -6.270224601030e-02   1.276707798243e-01  -3.720583319664e-01   0.000000000000e+00  -4.077825695276e-02  -3.322183489799e-01   0.000000000000e+00  -4.077825695276e-02  -3.322183489799e-01 
 -1.998286135495e-02   5.858816206455e-03  -3.397186100483e-01   3.886540606618e-02   7.966137677431e-02  -3.492462933064e-01  -6.033263728023e-02   7.799994200468e-02  -3.673195242882e-01 
 -4.615150764585e-02  -7.731802761555e-02  -3.666991591454e-01  -5.303186923265e-02  -1.102294102311e-01  -3.778674304485e-01   6.171057373285e-02  -5.586972460151e-02  -3.539963662624e-01 
 -6.217333674431e-02  -4.970826581120e-02  -3.611054122448e-01  -6.217333674431e-02  -4.970826581120e-02  -3.611054122448e-01   0.000000000000e+00  -1.116215512156e-01  -3.546538054943e-01 
  0.000000000000e+00  -1.116215512156e-01  -3.546538054943e-01  -6.747248023748e-02  -1.338809579611e-01  -3.729318976402e-01   1.137593090534e-01  -4.372111987323e-03  -3.470603525639e-01 
 -7.014133501798e-03   4.524540156126e-02  -3.515296280384e-01   4.472400248051e-02   8.815871924162e-02  -3.522311747074e-01  -6.581564992666e-02   5.316716060042e-02  -3.706991076469e-01 
 -7.484521716833e-02  -1.085627749562e-01  -3.738388121128e-01  -1.201077625155e-01  -1.852063387632e-01  -4.014625847340e-01  -1.201077625155e-01  -1.852063387632e-01  -4.014625847340e-01 
  0.000000000000e+00   0.000000000000e+00  -3.419389426708e-01   0.000000000000e+00   0.000000000000e+00  -3.419389426708e-01  -8.983568102121e-02   0.000000000000e+00  -3.608550131321e-01 
 -3.057156689465e-02   0.000000000000e+00  -3.529168069363e-01  -6.530486047268e-02   0.000000000000e+00  -3.654341995716e-01   1.755219399929e-01   0.000000000000e+00  -3.470098376274e-01 
  1.301366928965e-02   0.000000000000e+00  -3.655408918858e-01   3.641818650067e-03   0.000000000000e+00  -3.630538880825e-01  -7.535353302956e-03   0.000000000000e+00  -3.756624460220e-01 
 -7.535353302956e-03   0.000000000000e+00  -3.756624460220e-01   0.000000000000e+00   0.000000000000e+00  -3.419389426708e-01   0.000000000000e+00   0.000000000000e+00  -3.419389426708e-01 
 -8.983568102121e-02   0.000000000000e+00  -3.608550131321e-01  -3.057156689465e-02   0.000000000000e+00  -3.529168069363e-01  -6.530486047268e-02   0.000000000000e+00  -3.654341995716e-01 
  1.755219399929e-01   0.000000000000e+00  -3.470098376274e-01   1.301366928965e-02   0.000000000000e+00  -3.655408918858e-01   3.641818650067e-03   0.000000000000e+00  -3.630538880825e-01 
 -7.535353302956e-03   0.000000000000e+00  -3.756624460220e-01  -7.535353302956e-03   0.000000000000e+00  -3.756624460220e-01   0.000000000000e+00  -1.428201347589e-01  -2.299697548151e-01 
  0.000000000000e+00  -1.428201347589e-01  -2.299697548151e-01  -1.126727554947e-03  -1.450241059065e-01  -2.191802263260e-01   8.688727393746e-03  -1.401241719723e-01  -3.259856998920e-01 
  1.921414863318e-03  -1.405573040247e-01  -3.448503613472e-01  -5.727276671678e-03  -1.420770287514e-01  -3.730425536633e-01  -1.957136578858e-02  -1.488958597183e-01  -2.963303029537e-01 
 -1.239797659218e-02  -1.512008905411e-01  -2.663211524487e-01  -1.535649970174e-02  -1.570005267859e-01  -2.146835625172e-01  -1.535649970174e-02  -1.570005267859e-01  -2.146835625172e-01 
  0.000000000000e+00  -1.428201347589e-01  -2.299697548151e-01   0.000000000000e+00  -1.428201347589e-01  -2.299697548151e-01  -1.126727554947e-03  -1.450241059065e-01  -2.191802263260e-01 
  8.688727393746e-03  -1.401241719723e-01  -3.259856998920e-01   1.921414863318e-03  -1.405573040247e-01  -3.448503613472e-01  -5.727276671678e-03  -1.420770287514e-01  -3.730425536633e-01 
 -1.957136578858e-02  -1.488958597183e-01  -2.963303029537e-01  -1.239797659218e-02  -1.512008905411e-01  -2.663211524487e-01  -1.535649970174e-02  -1.570005267859e-01  -2.146835625172e-01 
 -1.535649970174e-02  -1.570005267859e-01  -2.146835625172e-01   0.000000000000e+00   3.751557320356e-02  -3.321504294872e-01   0.000000000000e+00   3.751557320356e-02  -3.321504294872e-01 
 -1.043642126024e-02   2.655453048646e-02  -2.755597233772e-01   1.769569120370e-03   2.934811823070e-02  -2.794470787048e-01  -3.865622915328e-03   2.562443166971e-02  -2.424830049276e-01 
 -1.646738615818e-03   3.138797730207e-02  -3.330685794353e-01  -1.022960618138e-02   3.198819607496e-02  -3.223163485527e-01  -5.964378360659e-03   3.966814652085e-02  -3.656818568707e-01 
 -1.108224596828e-02   4.387672245502e-02  -3.386553525925e-01  -1.108224596828e-02   4.387672245502e-02  -3.386553525925e-01   0.000000000000e+00  -1.937129651196e-03  -3.176119625568e-01 
  0.000000000000e+00  -1.937129651196e-03  -3.176119625568e-01  -1.070700865239e-02  -4.399681463838e-03  -2.961422801018e-01  -1.764100044966e-03  -7.309427019209e-03  -3.690365254879e-01 
 -6.487133447081e-03  -9.649059735239e-03  -3.476570844650e-01  -4.492195788771e-03  -1.394397579134e-02  -3.191464543343e-01  -1.377337425947e-02  -1.809876598418e-02  -2.182148098946e-01 
 -3.449009498581e-03  -9.345699101686e-03  -3.146146237850e-01  -8.978948928416e-03  -6.141362711787e-03  -3.039421737194e-01  -8.978948928416e-03  -6.141362711787e-03  -3.039421737194e-01 
  0.000000000000e+00  -5.650191102177e-03  -2.719405591488e-01   0.000000000000e+00  -5.650191102177e-03  -2.719405591488e-01  -1.538337115198e-02  -1.037318445742e-02  -1.891475766897e-01 
  2.004172187299e-03  -1.860483083874e-03  -3.150110840797e-01  -1.576041220687e-03   3.092509694397e-03  -3.204005658627e-01  -2.452478045598e-03   3.310858970508e-03  -3.719959557056e-01 
 -1.148007344455e-02   4.047380294651e-03  -3.466005921364e-01  -7.930334657431e-03  -1.959261251613e-03  -3.013555705547e-01  -1.628705672920e-02  -1.003190316260e-02  -2.028343528509e-01 
 -1.628705672920e-02  -1.003190316260e-02  -2.028343528509e-01   0.000000000000e+00   4.389522131532e-03  -3.459765315056e-01   0.000000000000e+00   4.389522131532e-03  -3.459765315056e-01 
 -1.403743214905e-02   2.260948298499e-03  -3.225732445717e-01  -3.623217111453e-03  -5.154924932867e-03  -3.029855191708e-01  -8.873511105776e-03  -1.195993274450e-02  -2.133742272854e-01 
  2.209230558947e-03  -2.921026898548e-03  -3.115105330944e-01  -3.708870615810e-03   4.850053228438e-03  -3.250094950199e-01  -5.269970279187e-03   4.612354561687e-03  -3.707503080368e-01 
 -1.231100130826e-02   6.372065749019e-03  -3.436065614223e-01  -1.231100130826e-02   6.372065749019e-03  -3.436065614223e-01   0.000000000000e+00  -4.546901211143e-03  -2.989394962788e-01 
  0.000000000000e+00  -4.546901211143e-03  -2.989394962788e-01  -7.467625662684e-03   2.420162782073e-03  -2.942900955677e-01  -1.683543785475e-03   1.431722077541e-03  -3.715994060040e-01 
 -7.676081731915e-03   2.052944153547e-03  -3.428761661053e-01  -2.043025335297e-03  -3.886261954904e-03  -2.891701161861e-01  -9.370424784720e-03  -9.573801420629e-03  -2.202166318893e-01 
 -4.323186352849e-03  -4.511803854257e-03  -2.989487648010e-01  -1.105622574687e-02  -8.403291576542e-04  -2.834183871746e-01  -1.105622574687e-02  -8.403291576542e-04  -2.834183871746e-01 
  0.000000000000e+00  -1.517754327506e-02  -2.295517176390e-01   0.000000000000e+00  -1.517754327506e-02  -2.295517176390e-01  -9.814713150263e-03  -1.530308462679e-02  -1.802552640438e-01 
  5.747300107032e-03  -3.371394937858e-03  -3.181901276112e-01   2.165583427995e-03   5.519814789295e-03  -3.266049623489e-01   2.569052856416e-03   5.678219255060e-03  -3.809356391430e-01 
 -1.003656256944e-02   3.874560585245e-03  -3.517695069313e-01  -1.218801550567e-02  -5.413198377937e-03  -2.809615135193e-01  -1.733431406319e-02  -1.338312495500e-02  -1.875818669796e-01 
 -1.733431406319e-02  -1.338312495500e-02  -1.875818669796e-01   0.000000000000e+00   0.000000000000e+00  -3.392181396484e-01   0.000000000000e+00   0.000000000000e+00  -3.392181396484e-01 
 -1.419321354479e-02   0.000000000000e+00  -2.822267711163e-01   1.738500548527e-03   0.000000000000e+00  -2.712087631226e-01  -5.742068751715e-04   0.000000000000e+00  -1.782218962908e-01 
  1.242624968290e-02   0.000000000000e+00  -3.458681106567e-01   1.016669673845e-03   0.000000000000e+00  -4.133825004101e-01  -9.163830429316e-03   0.000000000000e+00  -4.168665111065e-01 
 -1.097461767495e-02   0.000000000000e+00  -4.181870222092e-01  -1.097461767495e-02   0.000000000000e+00  -4.181870222092e-01   0.000000000000e+00   0.000000000000e+00  -3.392181396484e-01 
  0.000000000000e+00   0.000000000000e+00  -3.392181396484e-01  -1.419321354479e-02   0.000000000000e+00  -2.822267711163e-01   1.738500548527e-03   0.000000000000e+00  -2.712087631226e-01 
 -5.742068751715e-04   0.000000000000e+00  -1.782218962908e-01   1.242624968290e-02   0.000000000000e+00  -3.458681106567e-01   1.016669673845e-03   0.000000000000e+00  -4.133825004101e-01 
 -9.163830429316e-03   0.000000000000e+00  -4.168665111065e-01  -1.097461767495e-02   0.000000000000e+00  -4.181870222092e-01  -1.097461767495e-02   0.000000000000e+00  -4.181870222092e-01 
  0.000000000000e+00  -1.314425766468e-01  -3.060253262520e-01   0.000000000000e+00  -1.314425766468e-01  -3.060253262520e-01  -1.759090577252e-03  -1.336631923914e-01  -3.278171718121e-01 
  5.529165733606e-03  -1.307441443205e-01  -3.472712934017e-01   1.472165691666e-03  -1.300744861364e-01  -3.477252125740e-01  -2.368255751207e-03  -1.298051625490e-01  -3.450717628002e-01 
 -1.172292139381e-02  -1.346940100193e-01  -3.429285883904e-01  -8.216626010835e-03  -1.377600878477e-01  -3.401632905006e-01  -8.441009558737e-03  -1.416895091534e-01  -3.361253738403e-01 
 -8.441009558737e-03  -1.416895091534e-01  -3.361253738403e-01   0.000000000000e+00  -1.314425766468e-01  -3.060253262520e-01   0.000000000000e+00  -1.314425766468e-01  -3.060253262520e-01 
 -1.759090577252e-03  -1.336631923914e-01  -3.278171718121e-01   5.529165733606e-03  -1.307441443205e-01  -3.472712934017e-01   1.472165691666e-03  -1.300744861364e-01  -3.477252125740e-01 
 -2.368255751207e-03  -1.298051625490e-01  -3.450717628002e-01  -1.172292139381e-02  -1.346940100193e-01  -3.429285883904e-01  -8.216626010835e-03  -1.377600878477e-01  -3.401632905006e-01 
 -8.441009558737e-03  -1.416895091534e-01  -3.361253738403e-01  -8.441009558737e-03  -1.416895091534e-01  -3.361253738403e-01   0.000000000000e+00   2.934954687953e-02  -3.076531291008e-01 
  0.000000000000e+00   2.934954687953e-02  -3.076531291008e-01  -6.668750196695e-03   2.278564497828e-02  -3.270061910152e-01   2.225950447610e-05   2.743834815919e-02  -3.475954532623e-01 
 -2.428423147649e-03   2.531338855624e-02  -3.498253822327e-01  -4.057215701323e-04   2.908818423748e-02  -3.470719158649e-01  -6.981696933508e-03   2.402084879577e-02  -3.450609743595e-01 
 -1.612706459127e-03   2.984479628503e-02  -3.396151065826e-01  -5.340669304132e-03   3.291973099113e-02  -3.359032571316e-01  -5.340669304132e-03   3.291973099113e-02  -3.359032571316e-01 
  0.000000000000e+00  -4.694771021605e-03  -3.107352852821e-01   0.000000000000e+00  -4.694771021605e-03  -3.107352852821e-01  -6.284026429057e-03  -4.612549673766e-03  -3.294650912285e-01 
  1.236853073351e-03  -3.118498949334e-03  -3.428622484207e-01  -3.253761213273e-03  -3.991131205112e-03  -3.409206867218e-01  -4.454244393855e-03  -8.688692003489e-03  -3.435801267624e-01 
 -8.549134247005e-03  -1.073173899204e-02  -3.447819650173e-01  -1.469875685871e-03  -8.712111040950e-03  -3.425193727016e-01  -5.449246149510e-03  -8.629814721644e-03  -3.400223553181e-01 
 -5.449246149510e-03  -8.629814721644e-03  -3.400223553181e-01   0.000000000000e+00  -1.122171292081e-03  -3.095309734344e-01   0.000000000000e+00  -1.122171292081e-03  -3.095309734344e-01 
 -8.350624702871e-03  -3.262551268563e-03  -3.297472298145e-01   1.552409841679e-03  -2.088434528559e-03  -3.475670814514e-01  -1.350672566332e-03  -2.535768144298e-04  -3.469309508801e-01 
  7.869400433265e-04   4.824028350413e-03  -3.430465459824e-01  -5.590206477791e-03   7.553420029581e-03  -3.383691012859e-01  -6.628779694438e-03   2.219466958195e-03  -3.405075073242e-01 
 -9.711502119899e-03  -2.135345945135e-03  -3.393279314041e-01  -9.711502119899e-03  -2.135345945135e-03  -3.393279314041e-01   0.000000000000e+00   4.429534543306e-03  -3.098818063736e-01 
  0.000000000000e+00   4.429534543306e-03  -3.098818063736e-01  -6.881172768772e-03   5.494578741491e-03  -3.238010406494e-01  -3.493067808449e-03  -3.419024578761e-04  -3.443806171417e-01 
 -5.974803585559e-03  -5.102842580527e-03  -3.468233942986e-01   1.337755937129e-03  -3.873320762068e-03  -3.470269739628e-01  -2.000737236813e-03  -5.733372381655e-05  -3.455176651478e-01 
 -9.510625386611e-04   5.290759727359e-03  -3.399085104465e-01  -5.554594099522e-03   9.051251225173e-03  -3.352496325970e-01  -5.554594099522e-03   9.051251225173e-03  -3.352496325970e-01 
  0.000000000000e+00  -6.088440772146e-03  -3.122351765633e-01   0.000000000000e+00  -6.088440772146e-03  -3.122351765633e-01  -4.204591736197e-03  -2.821982372552e-03  -3.305892050266e-01 
  2.578707644716e-03   3.301575314254e-03  -3.432144522667e-01  -2.866445109248e-03   6.245938595384e-03  -3.396810889244e-01  -3.070312086493e-03   1.212631934322e-03  -3.442947566509e-01 
 -6.289956625551e-03  -3.231873735785e-03  -3.459331393242e-01  -2.332296455279e-03  -3.750793868676e-03  -3.436255753040e-01  -5.906942766160e-03  -3.695121267810e-03  -3.416902124882e-01 
 -5.906942766160e-03  -3.695121267810e-03  -3.416902124882e-01   0.000000000000e+00  -6.849919445813e-03  -3.074485957623e-01   0.000000000000e+00  -6.849919445813e-03  -3.074485957623e-01 
 -6.176036316901e-03  -8.213044144213e-03  -3.280619680882e-01   4.019498359412e-03  -5.121357273310e-03  -3.468395173550e-01   2.128886990249e-03   3.780084080063e-05  -3.475456237793e-01 
  6.037198938429e-03   7.453280966729e-03  -3.430679440498e-01  -3.202646505088e-03   9.316128678620e-03  -3.383463025093e-01  -8.705139160156e-03   2.419007476419e-03  -3.397172093391e-01 
 -8.946913294494e-03  -1.482731313445e-03  -3.369255363941e-01  -8.946913294494e-03  -1.482731313445e-03  -3.369255363941e-01   0.000000000000e+00   0.000000000000e+00  -3.042851090431e-01 
  0.000000000000e+00   0.000000000000e+00  -3.042851090431e-01  -9.527243673801e-03   0.000000000000e+00  -3.219742774963e-01  -3.704808186740e-03   0.000000000000e+00  -3.471119999886e-01 
 -1.134601305239e-03   0.000000000000e+00  -3.541665673256e-01   1.469913963228e-02   0.000000000000e+00  -3.486905395985e-01   5.893656518310e-03   0.000000000000e+00  -3.404564857483e-01 
 -3.883233992383e-03   0.000000000000e+00  -3.355998098850e-01  -3.270718036219e-03   0.000000000000e+00  -3.269552886486e-01  -3.270718036219e-03   0.000000000000e+00  -3.269552886486e-01 
  0.000000000000e+00   0.000000000000e+00  -3.042851090431e-01   0.000000000000e+00   0.000000000000e+00  -3.042851090431e-01  -9.527243673801e-03   0.000000000000e+00  -3.219742774963e-01 
 -3.704808186740e-03   0.000000000000e+00  -3.471119999886e-01  -1.134601305239e-03   0.000000000000e+00  -3.541665673256e-01   1.469913963228e-02   0.000000000000e+00  -3.486905395985e-01 
  5.893656518310e-03   0.000000000000e+00  -3.404564857483e-01  -3.883233992383e-03   0.000000000000e+00  -3.355998098850e-01  -3.270718036219e-03   0.000000000000e+00  -3.269552886486e-01 
 -3.270718036219e-03   0.000000000000e+00  -3.269552886486e-01   0.000000000000e+00  -1.091400608420e-01  -2.973254323006e-01   0.000000000000e+00  -1.091400608420e-01  -2.973254323006e-01 
 -2.727573737502e-04  -1.095391884446e-01  -3.140580356121e-01   8.586295880377e-04  -1.090038865805e-01  -3.367299139500e-01  -3.381014685147e-04  -1.090878173709e-01  -3.389094769955e-01 
 -2.732157707214e-03  -1.099424138665e-01  -3.403623402119e-01  -4.881624132395e-03  -1.119255498052e-01  -3.349082171917e-01  -4.227081779391e-03  -1.136878132820e-01  -3.304691314697e-01 
 -3.195475786924e-03  -1.152127757668e-01  -3.257096707821e-01  -3.195475786924e-03  -1.152127757668e-01  -3.257096707821e-01   0.000000000000e+00  -1.091400608420e-01  -2.973254323006e-01 
  0.000000000000e+00  -1.091400608420e-01  -2.973254323006e-01  -2.727573737502e-04  -1.095391884446e-01  -3.140580356121e-01   8.586295880377e-04  -1.090038865805e-01  -3.367299139500e-01 
 -3.381014685147e-04  -1.090878173709e-01  -3.389094769955e-01  -2.732157707214e-03  -1.099424138665e-01  -3.403623402119e-01  -4.881624132395e-03  -1.119255498052e-01  -3.349082171917e-01 
 -4.227081779391e-03  -1.136878132820e-01  -3.304691314697e-01  -3.195475786924e-03  -1.152127757668e-01  -3.257096707821e-01  -3.195475786924e-03  -1.152127757668e-01  -3.257096707821e-01 
  0.000000000000e+00   1.861741207540e-02  -3.046835660934e-01   0.000000000000e+00   1.861741207540e-02  -3.046835660934e-01  -1.628819387406e-03   1.524943858385e-02  -3.186165988445e-01 
 -1.346291828668e-04   2.194164693356e-02  -3.368081748486e-01  -1.090210629627e-03   2.387519553304e-02  -3.357804119587e-01  -2.373829716817e-03   2.266545034945e-02  -3.379908800125e-01 
 -3.820176236331e-03   1.759315840900e-02  -3.353289961815e-01  -2.894577337429e-03   1.903429813683e-02  -3.360622823238e-01  -2.366814995185e-03   1.983917504549e-02  -3.342368304729e-01 
 -2.366814995185e-03   1.983917504549e-02  -3.342368304729e-01   0.000000000000e+00  -3.304722020403e-03  -3.030256927013e-01   0.000000000000e+00  -3.304722020403e-03  -3.030256927013e-01 
 -1.981646521017e-03  -3.919115290046e-03  -3.174248337746e-01  -1.622607582249e-03  -5.516795441508e-03  -3.382501900196e-01  -1.779251848347e-03  -6.432708818465e-03  -3.380596041679e-01 
 -1.984846312553e-03  -5.926522426307e-03  -3.361871540546e-01  -3.069284837693e-03  -5.124041344970e-03  -3.310284316540e-01  -2.589944750071e-03  -4.127318505198e-03  -3.316124379635e-01 
 -2.218575216830e-03  -3.917855676264e-03  -3.291641473770e-01  -2.218575216830e-03  -3.917855676264e-03  -3.291641473770e-01   0.000000000000e+00   7.802050095052e-04  -3.018457293510e-01 
  0.000000000000e+00   7.802050095052e-04  -3.018457293510e-01  -2.230551559478e-03   5.888203158975e-04  -3.149957060814e-01  -1.071302685887e-03   1.179952407256e-03  -3.354530632496e-01 
 -1.345337252133e-03   1.435139914975e-03  -3.354079425335e-01  -1.683749142103e-03   1.602160627954e-03  -3.380415439606e-01  -2.842574845999e-03   1.726415241137e-03  -3.367910385132e-01 
 -2.789659658447e-03   1.608113991097e-03  -3.335342407227e-01  -2.727237064391e-03   1.329763093963e-03  -3.272901475430e-01  -2.727237064391e-03   1.329763093963e-03  -3.272901475430e-01 
  0.000000000000e+00   3.546531370375e-04  -3.056558370590e-01   0.000000000000e+00   3.546531370375e-04  -3.056558370590e-01  -2.304249210283e-03   2.112575457431e-04  -3.203960061073e-01 
 -1.319314469583e-03  -6.287555879680e-05  -3.367049694061e-01  -1.663304283284e-03  -4.292200901546e-04  -3.324561715126e-01  -1.201571663842e-03   2.087989414576e-04  -3.344185650349e-01 
 -1.958492211998e-03   1.167163485661e-03  -3.345418274403e-01  -2.254205988720e-03   1.495770527981e-03  -3.360719978809e-01  -2.281961031258e-03   1.744164386764e-03  -3.339795768261e-01 