# vtk DataFile Version 2.0
Written using VisIt writer
ASCII
DATASET RECTILINEAR_GRID
DIMENSIONS 10 10 10
X_COORDINATES 10 float
  0.000000000000e+00   5.000000000000e-01   1.000000000000e+00   1.500000000000e+00   2.000000000000e+00   2.500000000000e+00   3.000000000000e+00   3.500000000000e+00   4.000000000000e+00 
  4.500000000000e+00 
Y_COORDINATES 10 float
  0.000000000000e+00   5.000000000000e-01   1.000000000000e+00   1.500000000000e+00   2.000000000000e+00   2.500000000000e+00   3.000000000000e+00   3.500000000000e+00   4.000000000000e+00 
  4.500000000000e+00 
Z_COORDINATES 10 float
  0.000000000000e+00   5.000000000000e-01   1.000000000000e+00   1.500000000000e+00   2.000000000000e+00   2.500000000000e+00   3.000000000000e+00   3.500000000000e+00   4.000000000000e+00 
  4.500000000000e+00 
CELL_DATA 729
POINT_DATA 1000
VECTORS velocity float
  0.000000000000e+00  -1.907770633698e-01  -3.227835893631e-01   1.750000000000e+00   0.000000000000e+00   1.750000000000e+00   4.138491168424e+15   1.131434917450e+00   5.562549456954e-03 
  9.820687770844e-02  -2.043681144714e-01  -3.037850260735e-01   1.405461033856e+24   1.750741839409e+00   0.000000000000e+00   1.750000000000e+00   0.000000000000e+00   1.750000000000e+00 
 -1.194178387523e-01  -1.983717530966e-01  -3.295573890209e-01  -1.535381674767e+00  -2.777838780416e+12  -1.629836916924e+00  -2.359120975024e-22   1.750610589981e+00   0.000000000000e+00 
 -1.158746182919e-01  -2.389310300350e-01  -3.220892250538e-01   0.000000000000e+00  -1.907770633698e-01  -3.227835893631e-01  -1.535387396812e+00   2.663572090888e-27  -1.629902482033e+00 
 -2.410290762782e-02  -2.176320254803e-01  -3.086219727993e-01   9.820687770844e-02  -2.043681144714e-01  -3.037850260735e-01   4.138491168424e+15   1.131434917450e+00   5.562549456954e-03 
 -3.016673494130e-03  -1.653483361006e-01  -3.226196765900e-01  -1.194178387523e-01  -1.983717530966e-01  -3.295573890209e-01   1.750000000000e+00   0.000000000000e+00   1.750000000000e+00 
 -1.158746182919e-01  -2.389310300350e-01  -3.220892250538e-01  -1.158746182919e-01  -2.389310300350e-01  -3.220892250538e-01   0.000000000000e+00   1.896782815456e-01  -3.187764585018e-01 
  0.000000000000e+00   1.896782815456e-01  -3.187764585018e-01  -1.101001277566e-01   9.936583787203e-02  -3.133633434772e-01  -7.466452661902e-03   6.412899587303e-03  -3.008690178394e-01 
 -5.649046599865e-02  -1.764492690563e-02  -3.067030310631e-01   7.847435027361e-02   2.496154606342e-02  -3.032853901386e-01  -5.171077325940e-02   1.016650944948e-01  -3.115335404873e-01 
  4.198327660561e-02   2.181385457516e-01  -3.173211216927e-01  -1.062560304999e-01   2.418141812086e-01  -3.287573754787e-01  -1.062560304999e-01   2.418141812086e-01  -3.287573754787e-01 
  0.000000000000e+00  -3.413920849562e-02  -3.188809156418e-01   0.000000000000e+00  -3.413920849562e-02  -3.188809156418e-01  -5.830314755440e-02  -4.067673813552e-03  -3.100458085537e-01 
  6.349658966064e-02   8.369464427233e-02  -3.200869560242e-01  -7.592292875051e-02   4.208601266146e-02  -3.333413004875e-01  -5.657522380352e-02  -1.070804521441e-01  -3.180481791496e-01 
 -1.321588754654e-01  -1.610377728939e-01  -3.364472985268e-01   9.779668599367e-02  -8.838693052530e-02  -3.175701200962e-01  -9.076343476772e-02  -8.145752549171e-02  -3.243509829044e-01 
 -9.076343476772e-02  -8.145752549171e-02  -3.243509829044e-01   0.000000000000e+00  -7.829607278109e-02  -3.216169476509e-01   0.000000000000e+00  -7.829607278109e-02  -3.216169476509e-01 
 -1.454596817493e-01  -1.476533859968e-01  -3.383569419384e-01   1.331573277712e-01  -6.672041863203e-02  -3.078294992447e-01  -1.560597587377e-02  -1.300253532827e-02  -3.124090433121e-01 
  5.998066067696e-02   1.034913212061e-01  -3.185652196407e-01  -9.128062427044e-02   1.186188161373e-01  -3.351545631886e-01  -7.445478439331e-02  -8.129547536373e-02  -3.199347555637e-01 
 -1.632764488459e-01  -1.530274152756e-01  -3.338128328323e-01  -1.632764488459e-01  -1.530274152756e-01  -3.338128328323e-01   0.000000000000e+00   1.032785251737e-01  -3.231928944588e-01 
  0.000000000000e+00   1.032785251737e-01  -3.231928944588e-01  -9.368826448917e-02   1.309584826231e-01  -3.249378502369e-01  -6.975513696671e-02  -9.359227120876e-02  -3.122221231461e-01 
 -1.092408448458e-01  -1.466346085072e-01  -3.232946991920e-01   1.212672516704e-01  -7.597014307976e-02  -3.061518371105e-01  -1.134350243956e-02   1.139563508332e-03  -3.149142563343e-01 
  4.354521632195e-02   1.163098365068e-01  -3.218802511692e-01  -9.959860146046e-02   1.770210862160e-01  -3.329984247684e-01  -9.959860146046e-02   1.770210862160e-01  -3.329984247684e-01 
  0.000000000000e+00  -8.049527555704e-02  -3.100273311138e-01   0.000000000000e+00  -8.049527555704e-02  -3.100273311138e-01  -3.026126511395e-02  -8.079143241048e-03  -3.034430742264e-01 
  6.266153603792e-02   1.183550357819e-01  -3.149877190590e-01  -9.913423657417e-02   1.068890690804e-01  -3.307161629200e-01  -6.338623166084e-02  -1.005407646298e-01  -3.173580169678e-01 
 -8.811829239130e-02  -1.407902836800e-01  -3.206747174263e-01   6.199612095952e-02  -1.047765612602e-01  -3.044782578945e-01  -1.022395640612e-01  -9.793357551098e-02  -3.110632598400e-01 
 -1.022395640612e-01  -9.793357551098e-02  -3.110632598400e-01   0.000000000000e+00  -1.451489031315e-01  -3.242836892605e-01   0.000000000000e+00  -1.451489031315e-01  -3.242836892605e-01 
 -1.055193468928e-01  -1.571875661612e-01  -3.237731754780e-01   1.427041292191e-01  -6.506541743875e-03  -3.048302531242e-01  -8.923968300223e-03   6.830971688032e-02  -3.155163228512e-01 
  6.382251530886e-02   1.301878690720e-01  -3.267808258533e-01  -1.093171313405e-01   6.608948111534e-02  -3.402799069881e-01  -9.478291124105e-02  -1.370022445917e-01  -3.255150318146e-01 
 -1.430124491453e-01  -1.986965686083e-01  -3.564557135105e-01  -1.430124491453e-01  -1.986965686083e-01  -3.564557135105e-01   0.000000000000e+00   0.000000000000e+00  -3.312512636185e-01 
  0.000000000000e+00   0.000000000000e+00  -3.312512636185e-01  -1.339152902365e-01   0.000000000000e+00  -3.193982839584e-01  -5.448411777616e-02   0.000000000000e+00  -2.869755625725e-01 
 -1.070140525699e-01   0.000000000000e+00  -2.972994446754e-01   2.539129853249e-01   0.000000000000e+00  -3.255932331085e-01   2.651777304709e-02   0.000000000000e+00  -3.650466799736e-01 
  2.028420940042e-02   0.000000000000e+00  -3.641795217991e-01  -1.031409119605e-04   0.000000000000e+00  -3.921869099140e-01  -1.031409119605e-04   0.000000000000e+00  -3.921869099140e-01 
  0.000000000000e+00   0.000000000000e+00  -3.312512636185e-01   0.000000000000e+00   0.000000000000e+00  -3.312512636185e-01  -1.339152902365e-01   0.000000000000e+00  -3.193982839584e-01 
 -5.448411777616e-02   0.000000000000e+00  -2.869755625725e-01  -1.070140525699e-01   0.000000000000e+00  -2.972994446754e-01   2.539129853249e-01   0.000000000000e+00  -3.255932331085e-01 
  2.651777304709e-02   0.000000000000e+00  -3.650466799736e-01   2.028420940042e-02   0.000000000000e+00  -3.641795217991e-01  -1.031409119605e-04   0.000000000000e+00  -3.921869099140e-01 
 -1.031409119605e-04   0.000000000000e+00  -3.921869099140e-01   0.000000000000e+00  -1.907770633698e-01  -3.227835893631e-01   0.000000000000e+00  -1.907770633698e-01  -3.227835893631e-01 
 -2.410290762782e-02  -2.176320254803e-01  -3.086219727993e-01   9.820687770844e-02  -2.043681144714e-01  -3.037850260735e-01  -5.592433735728e-03  -2.037072330713e-01  -3.175027072430e-01 
 -3.016673494130e-03  -1.653483361006e-01  -3.226196765900e-01  -1.194178387523e-01  -1.983717530966e-01  -3.295573890209e-01  -2.868979424238e-02  -2.043960839510e-01  -3.158519566059e-01 
 -1.158746182919e-01  -2.389310300350e-01  -3.220892250538e-01  -1.158746182919e-01  -2.389310300350e-01  -3.220892250538e-01   0.000000000000e+00  -1.907770633698e-01  -3.227835893631e-01 
  0.000000000000e+00  -1.907770633698e-01  -3.227835893631e-01  -2.410290762782e-02  -2.176320254803e-01  -3.086219727993e-01   9.820687770844e-02  -2.043681144714e-01  -3.037850260735e-01 
 -5.592433735728e-03  -2.037072330713e-01  -3.175027072430e-01  -3.016673494130e-03  -1.653483361006e-01  -3.226196765900e-01  -1.194178387523e-01  -1.983717530966e-01  -3.295573890209e-01 
 -2.868979424238e-02  -2.043960839510e-01  -3.158519566059e-01  -1.158746182919e-01  -2.389310300350e-01  -3.220892250538e-01  -1.158746182919e-01  -2.389310300350e-01  -3.220892250538e-01 
  0.000000000000e+00   1.896782815456e-01  -3.187764585018e-01   0.000000000000e+00   1.896782815456e-01  -3.187764585018e-01  -1.101001277566e-01   9.936583787203e-02  -3.133633434772e-01 
 -7.466452661902e-03   6.412899587303e-03  -3.008690178394e-01  -5.649046599865e-02  -1.764492690563e-02  -3.067030310631e-01   7.847435027361e-02   2.496154606342e-02  -3.032853901386e-01 
 -5.171077325940e-02   1.016650944948e-01  -3.115335404873e-01   4.198327660561e-02   2.181385457516e-01  -3.173211216927e-01  -1.062560304999e-01   2.418141812086e-01  -3.287573754787e-01 
 -1.062560304999e-01   2.418141812086e-01  -3.287573754787e-01   0.000000000000e+00  -3.413920849562e-02  -3.188809156418e-01   0.000000000000e+00  -3.413920849562e-02  -3.188809156418e-01 
 -5.830314755440e-02  -4.067673813552e-03  -3.100458085537e-01   6.349658966064e-02   8.369464427233e-02  -3.200869560242e-01  -7.592292875051e-02   4.208601266146e-02  -3.333413004875e-01 
 -5.657522380352e-02  -1.070804521441e-01  -3.180481791496e-01  -1.321588754654e-01  -1.610377728939e-01  -3.364472985268e-01   9.779668599367e-02  -8.838693052530e-02  -3.175701200962e-01 
 -9.076343476772e-02  -8.145752549171e-02  -3.243509829044e-01  -9.076343476772e-02  -8.145752549171e-02  -3.243509829044e-01   0.000000000000e+00  -7.829607278109e-02  -3.216169476509e-01 
  0.000000000000e+00  -7.829607278109e-02  -3.216169476509e-01  -1.454596817493e-01  -1.476533859968e-01  -3.383569419384e-01   1.331573277712e-01  -6.672041863203e-02  -3.078294992447e-01 
 -1.560597587377e-02  -1.300253532827e-02  -3.124090433121e-01   5.998066067696e-02   1.034913212061e-01  -3.185652196407e-01  -9.128062427044e-02   1.186188161373e-01  -3.351545631886e-01 
 -7.445478439331e-02  -8.129547536373e-02  -3.199347555637e-01  -1.632764488459e-01  -1.530274152756e-01  -3.338128328323e-01  -1.632764488459e-01  -1.530274152756e-01  -3.338128328323e-01 
  0.000000000000e+00   1.032785251737e-01  -3.231928944588e-01   0.000000000000e+00   1.032785251737e-01  -3.231928944588e-01  -9.368826448917e-02   1.309584826231e-01  -3.249378502369e-01 
 -6.975513696671e-02  -9.359227120876e-02  -3.122221231461e-01  -1.092408448458e-01  -1.466346085072e-01  -3.232946991920e-01   1.212672516704e-01  -7.597014307976e-02  -3.061518371105e-01 
 -1.134350243956e-02   1.139563508332e-03  -3.149142563343e-01   4.354521632195e-02   1.163098365068e-01  -3.218802511692e-01  -9.959860146046e-02   1.770210862160e-01  -3.329984247684e-01 
 -9.959860146046e-02   1.770210862160e-01  -3.329984247684e-01   0.000000000000e+00  -8.049527555704e-02  -3.100273311138e-01   0.000000000000e+00  -8.049527555704e-02  -3.100273311138e-01 
 -3.026126511395e-02  -8.079143241048e-03  -3.034430742264e-01   6.266153603792e-02   1.183550357819e-01  -3.149877190590e-01  -9.913423657417e-02   1.068890690804e-01  -3.307161629200e-01 
 -6.338623166084e-02  -1.005407646298e-01  -3.173580169678e-01  -8.811829239130e-02  -1.407902836800e-01  -3.206747174263e-01   6.199612095952e-02  -1.047765612602e-01  -3.044782578945e-01 
 -1.022395640612e-01  -9.793357551098e-02  -3.110632598400e-01  -1.022395640612e-01  -9.793357551098e-02  -3.110632598400e-01   0.000000000000e+00  -1.451489031315e-01  -3.242836892605e-01 
  0.000000000000e+00  -1.451489031315e-01  -3.242836892605e-01  -1.055193468928e-01  -1.571875661612e-01  -3.237731754780e-01   1.427041292191e-01  -6.506541743875e-03  -3.048302531242e-01 
 -8.923968300223e-03   6.830971688032e-02  -3.155163228512e-01   6.382251530886e-02   1.301878690720e-01  -3.267808258533e-01  -1.093171313405e-01   6.608948111534e-02  -3.402799069881e-01 
 -9.478291124105e-02  -1.370022445917e-01  -3.255150318146e-01  -1.430124491453e-01  -1.986965686083e-01  -3.564557135105e-01  -1.430124491453e-01  -1.986965686083e-01  -3.564557135105e-01 
  0.000000000000e+00   0.000000000000e+00  -3.312512636185e-01   0.000000000000e+00   0.000000000000e+00  -3.312512636185e-01  -1.339152902365e-01   0.000000000000e+00  -3.193982839584e-01 
 -5.448411777616e-02   0.000000000000e+00  -2.869755625725e-01  -1.070140525699e-01   0.000000000000e+00  -2.972994446754e-01   2.539129853249e-01   0.000000000000e+00  -3.255932331085e-01 
  2.651777304709e-02   0.000000000000e+00  -3.650466799736e-01   2.028420940042e-02   0.000000000000e+00  -3.641795217991e-01  -1.031409119605e-04   0.000000000000e+00  -3.921869099140e-01 
 -1.031409119605e-04   0.000000000000e+00  -3.921869099140e-01   0.000000000000e+00   0.000000000000e+00  -3.312512636185e-01   0.000000000000e+00   0.000000000000e+00  -3.312512636185e-01 
 -1.339152902365e-01   0.000000000000e+00  -3.193982839584e-01  -5.448411777616e-02   0.000000000000e+00  -2.869755625725e-01  -1.070140525699e-01   0.000000000000e+00  -2.972994446754e-01 
  2.539129853249e-01   0.000000000000e+00  -3.255932331085e-01   2.651777304709e-02   0.000000000000e+00  -3.650466799736e-01   2.028420940042e-02   0.000000000000e+00  -3.641795217991e-01 
 -1.031409119605e-04   0.000000000000e+00  -3.921869099140e-01  -1.031409119605e-04   0.000000000000e+00  -3.921869099140e-01   0.000000000000e+00  -2.140370458364e-01  -3.245507776737e-01 
  0.000000000000e+00  -2.140370458364e-01  -3.245507776737e-01  -8.709672838449e-03  -2.190374583006e-01  -3.418467342854e-01   2.246586838737e-03  -2.159517556429e-01  -4.929404854774e-01 
 -2.817832399160e-03  -2.197149097919e-01  -5.266549587250e-01  -1.082777511328e-02  -2.256601005793e-01  -5.629171729088e-01  -2.320284396410e-02  -2.349472343922e-01  -4.581989049911e-01 
 -1.759011112154e-02  -2.382970005274e-01  -4.183783233166e-01  -2.003400959074e-02  -2.460333108902e-01  -3.744884133339e-01  -2.003400959074e-02  -2.460333108902e-01  -3.744884133339e-01 
  0.000000000000e+00  -2.140370458364e-01  -3.245507776737e-01   0.000000000000e+00  -2.140370458364e-01  -3.245507776737e-01  -8.709672838449e-03  -2.190374583006e-01  -3.418467342854e-01 
  2.246586838737e-03  -2.159517556429e-01  -4.929404854774e-01  -2.817832399160e-03  -2.197149097919e-01  -5.266549587250e-01  -1.082777511328e-02  -2.256601005793e-01  -5.629171729088e-01 
 -2.320284396410e-02  -2.349472343922e-01  -4.581989049911e-01  -1.759011112154e-02  -2.382970005274e-01  -4.183783233166e-01  -2.003400959074e-02  -2.460333108902e-01  -3.744884133339e-01 
 -2.003400959074e-02  -2.460333108902e-01  -3.744884133339e-01   0.000000000000e+00   7.256364077330e-02  -4.500610232353e-01   0.000000000000e+00   7.256364077330e-02  -4.500610232353e-01 
 -1.720067672431e-02   5.835301801562e-02  -4.043497443199e-01  -3.715529339388e-03   6.063095107675e-02  -4.466516673565e-01  -9.186131879687e-03   5.637019500136e-02  -4.059219360352e-01 
 -6.804610602558e-03   6.225045025349e-02  -5.047410726547e-01  -1.296847872436e-02   6.491736322641e-02  -4.885735511780e-01  -8.857063949108e-03   7.772347331047e-02  -5.458948612213e-01 
 -1.221257727593e-02   8.617736399174e-02  -5.058997869492e-01  -1.221257727593e-02   8.617736399174e-02  -5.058997869492e-01   0.000000000000e+00  -1.539394352585e-02  -4.290607869625e-01 
  0.000000000000e+00  -1.539394352585e-02  -4.290607869625e-01  -1.942480914295e-02  -1.951231248677e-02  -4.260767102242e-01  -8.074784651399e-03  -2.158438973129e-02  -5.545747280121e-01 
 -1.032810378820e-02  -2.515720576048e-02  -5.235006809235e-01  -8.054317906499e-03  -2.665942534804e-02  -4.878298342228e-01  -1.738074049354e-02  -3.144028037786e-02  -3.750870823860e-01 
 -8.092322386801e-03  -2.830109559000e-02  -4.607595801353e-01  -1.105487067252e-02  -2.561986818910e-02  -4.465770721436e-01  -1.105487067252e-02  -2.561986818910e-02  -4.465770721436e-01 
  0.000000000000e+00   1.966300420463e-03  -3.734594881535e-01   0.000000000000e+00   1.966300420463e-03  -3.734594881535e-01  -2.194594219327e-02  -3.497709112708e-04  -3.214727938175e-01 
 -3.118549706414e-03   5.468999501318e-03  -4.672525823116e-01  -5.936789792031e-03   8.795568719506e-03  -4.834776222706e-01  -6.752499844879e-03   8.532825857401e-03  -5.603005886078e-01 
 -1.588227786124e-02   1.019680593163e-02  -5.242489576340e-01  -1.066992990673e-02   8.494207635522e-03  -4.598110616207e-01  -1.966220885515e-02   1.435598242097e-03  -3.516556620598e-01 
 -1.966220885515e-02   1.435598242097e-03  -3.516556620598e-01   0.000000000000e+00   5.478489212692e-03  -4.742108583450e-01   0.000000000000e+00   5.478489212692e-03  -4.742108583450e-01 
 -2.433844283223e-02   1.774019445293e-03  -4.684152901173e-01  -7.161580026150e-03  -2.814789069816e-03  -4.598940312862e-01  -1.391888782382e-02  -1.101118419319e-02  -3.663247823715e-01 
 -7.910509593785e-04  -3.569128224626e-03  -4.612674713135e-01  -8.024840615690e-03   4.235277418047e-03  -4.904330074787e-01  -9.427358396351e-03   3.739384235814e-03  -5.561459064484e-01 
 -1.463103201240e-02   7.202891632915e-03  -5.151170492172e-01  -1.463103201240e-02   7.202891632915e-03  -5.151170492172e-01   0.000000000000e+00  -8.723444305360e-03  -4.058233499527e-01 
  0.000000000000e+00  -8.723444305360e-03  -4.058233499527e-01  -1.566969230771e-02   9.891474619508e-04  -4.278680384159e-01  -6.291228812188e-03   8.877440122887e-04  -5.591455101967e-01 
 -1.146040763706e-02   3.872971283272e-03  -5.199108719826e-01  -3.507025074214e-03   1.199972466566e-03  -4.502049982548e-01  -1.599885895848e-02  -6.711725611240e-03  -3.801908493042e-01 
 -9.087904356420e-03  -5.070478189737e-03  -4.475684463978e-01  -1.270214747638e-02  -2.361513208598e-03  -4.144248366356e-01  -1.270214747638e-02  -2.361513208598e-03  -4.144248366356e-01 
  0.000000000000e+00  -1.530840527266e-02  -3.315281569958e-01   0.000000000000e+00  -1.530840527266e-02  -3.315281569958e-01  -1.799929887056e-02  -1.304311305285e-02  -3.014602959156e-01 
  2.002219436690e-03  -3.740465035662e-03  -4.720149934292e-01   1.158419647254e-03   5.915688350797e-03  -4.996986091137e-01   1.171280280687e-03   6.435610353947e-03  -5.739007592201e-01 
 -1.493659149855e-02   6.470002699643e-03  -5.278456211090e-01  -1.471119001508e-02   1.423072535545e-03  -4.358129799366e-01  -1.713462918997e-02  -3.396732266992e-03  -3.323808908463e-01 
 -1.713462918997e-02  -3.396732266992e-03  -3.323808908463e-01   0.000000000000e+00   0.000000000000e+00  -4.625576138496e-01   0.000000000000e+00   0.000000000000e+00  -4.625576138496e-01 
 -2.772463299334e-02   0.000000000000e+00  -4.139434099197e-01  -1.429445226677e-03   0.000000000000e+00  -4.203625023365e-01  -1.904563512653e-03   0.000000000000e+00  -3.365905880928e-01 
  1.592901535332e-02   0.000000000000e+00  -5.150699615479e-01  -1.969105331227e-03   0.000000000000e+00  -6.123049855232e-01  -1.310837455094e-02   0.000000000000e+00  -6.209682822227e-01 
 -8.477446623147e-03   0.000000000000e+00  -6.204383969307e-01  -8.477446623147e-03   0.000000000000e+00  -6.204383969307e-01   0.000000000000e+00   0.000000000000e+00  -4.625576138496e-01 
  0.000000000000e+00   0.000000000000e+00  -4.625576138496e-01  -2.772463299334e-02   0.000000000000e+00  -4.139434099197e-01  -1.429445226677e-03   0.000000000000e+00  -4.203625023365e-01 
 -1.904563512653e-03   0.000000000000e+00  -3.365905880928e-01   1.592901535332e-02   0.000000000000e+00  -5.150699615479e-01  -1.969105331227e-03   0.000000000000e+00  -6.123049855232e-01 
 -1.310837455094e-02   0.000000000000e+00  -6.209682822227e-01  -8.477446623147e-03   0.000000000000e+00  -6.204383969307e-01  -8.477446623147e-03   0.000000000000e+00  -6.204383969307e-01 
  0.000000000000e+00  -1.936393827200e-01  -3.937570452690e-01   0.000000000000e+00  -1.936393827200e-01  -3.937570452690e-01  -7.247392553836e-03  -1.994103193283e-01  -4.526989758015e-01 
  5.898727569729e-03  -1.990875154734e-01  -5.064526200294e-01  -1.715924445307e-04  -2.002037614584e-01  -5.024550557137e-01  -5.956561770290e-03  -2.005376815796e-01  -4.987029731274e-01 
 -2.129861526191e-02  -2.073524892330e-01  -5.013997554779e-01  -1.242492627352e-02  -2.110491693020e-01  -4.987186491489e-01  -1.326062530279e-02  -2.159821391106e-01  -4.940457642078e-01 
 -1.326062530279e-02  -2.159821391106e-01  -4.940457642078e-01   0.000000000000e+00  -1.936393827200e-01  -3.937570452690e-01   0.000000000000e+00  -1.936393827200e-01  -3.937570452690e-01 
 -7.247392553836e-03  -1.994103193283e-01  -4.526989758015e-01   5.898727569729e-03  -1.990875154734e-01  -5.064526200294e-01  -1.715924445307e-04  -2.002037614584e-01  -5.024550557137e-01 
 -5.956561770290e-03  -2.005376815796e-01  -4.987029731274e-01  -2.129861526191e-02  -2.073524892330e-01  -5.013997554779e-01  -1.242492627352e-02  -2.110491693020e-01  -4.987186491489e-01 
 -1.326062530279e-02  -2.159821391106e-01  -4.940457642078e-01  -1.326062530279e-02  -2.159821391106e-01  -4.940457642078e-01   0.000000000000e+00   6.087037548423e-02  -3.959747850895e-01 
  0.000000000000e+00   6.087037548423e-02  -3.959747850895e-01  -1.545681618154e-02   5.023232847452e-02  -4.536736607552e-01  -2.995074260980e-03   5.069019645452e-02  -5.098198056221e-01 
 -7.172964513302e-03   4.580066725612e-02  -5.108457803726e-01  -3.263748250902e-03   5.029000341892e-02  -5.052812695503e-01  -1.216667797416e-02   5.096669867635e-02  -5.031408667564e-01 
 -1.745030866005e-03   6.203950569034e-02  -4.947506785393e-01  -9.616711176932e-03   6.635345518589e-02  -4.921334683895e-01  -9.616711176932e-03   6.635345518589e-02  -4.921334683895e-01 
  0.000000000000e+00  -1.805796660483e-02  -3.951829969883e-01   0.000000000000e+00  -1.805796660483e-02  -3.951829969883e-01  -1.343966368586e-02  -1.597612909973e-02  -4.505517482758e-01 
  2.805594995152e-04  -1.148773357272e-02  -4.964009821415e-01  -8.377634920180e-03  -1.326547656208e-02  -4.950065314770e-01  -9.680509567261e-03  -2.102150768042e-02  -4.993032813072e-01 
 -1.523674838245e-02  -2.607083693147e-02  -4.995809793472e-01  -5.706829950213e-03  -2.934834174812e-02  -4.968255758286e-01  -1.048492640257e-02  -2.960724383593e-02  -4.947656691074e-01 
 -1.048492640257e-02  -2.960724383593e-02  -4.947656691074e-01   0.000000000000e+00   3.385039744899e-03  -3.960876166821e-01   0.000000000000e+00   3.385039744899e-03  -3.960876166821e-01 
 -1.604190655053e-02   2.944059378933e-04  -4.499521255493e-01  -2.211244078353e-03  -2.101781778038e-03  -5.047580599785e-01  -4.561323206872e-03   1.909443410113e-03  -5.057185888290e-01 
  1.014310866594e-03   1.199652068317e-02  -4.971634745598e-01  -1.039767265320e-02   1.614009588957e-02  -4.921478033066e-01  -1.250415947288e-02   9.869609028101e-03  -4.974424242973e-01 
 -1.604552753270e-02   4.702445585281e-03  -4.948286116123e-01  -1.604552753270e-02   4.702445585281e-03  -4.948286116123e-01   0.000000000000e+00   7.457328028977e-03  -3.960297107697e-01 
  0.000000000000e+00   7.457328028977e-03  -3.960297107697e-01  -1.420143619180e-02   8.449743501842e-03  -4.460404217243e-01  -9.063327684999e-03   5.632645916194e-04  -5.038933753967e-01 
 -1.259395387024e-02  -8.447851054370e-03  -5.050117969513e-01  -1.280516618863e-03  -1.044733542949e-02  -5.052075982094e-01  -4.203127231449e-03  -2.236442407593e-03  -5.030680298805e-01 
 -1.225469168276e-03   8.266711607575e-03  -4.927938282490e-01  -9.725709445775e-03   1.359007414430e-02  -4.886096417904e-01  -9.725709445775e-03   1.359007414430e-02  -4.886096417904e-01 
  0.000000000000e+00  -1.337691582739e-02  -3.975449502468e-01   0.000000000000e+00  -1.337691582739e-02  -3.975449502468e-01  -9.115674532950e-03  -5.807686597109e-03  -4.537551999092e-01 
  3.271245630458e-03   7.254864089191e-03  -4.992532134056e-01  -6.855264306068e-03   1.206011604518e-02  -4.951982200146e-01  -7.547162938863e-03   5.522775929421e-03  -5.027488470078e-01 
 -1.279097422957e-02  -3.935313783586e-03  -5.042473673820e-01  -7.160090375692e-03  -9.836746379733e-03  -5.010135173798e-01  -1.043852884322e-02  -1.042552478611e-02  -4.978907704353e-01 
 -1.043852884322e-02  -1.042552478611e-02  -4.978907704353e-01   0.000000000000e+00  -9.013236500323e-03  -3.946374952793e-01   0.000000000000e+00  -9.013236500323e-03  -3.946374952793e-01 
 -1.485121436417e-02  -1.276757754385e-02  -4.524382054806e-01   2.253427403048e-03  -1.138699427247e-02  -5.076214671135e-01   3.226796397939e-03   5.261830519885e-04  -5.071792006493e-01 
  1.082902494818e-02   1.487052254379e-02  -4.964537620544e-01  -6.688665132970e-03   1.677868328989e-02  -4.904934465885e-01  -1.589909195900e-02   8.136892691255e-03  -4.957044422626e-01 
 -1.175369415432e-02   5.130699370056e-03  -4.861324429512e-01  -1.175369415432e-02   5.130699370056e-03  -4.861324429512e-01   0.000000000000e+00   0.000000000000e+00  -3.925568759441e-01 
  0.000000000000e+00   0.000000000000e+00  -3.925568759441e-01  -2.271050773561e-02   0.000000000000e+00  -4.482839703560e-01  -1.110857445747e-02   0.000000000000e+00  -5.117744803429e-01 
 -1.349077327177e-03   0.000000000000e+00  -5.164013504982e-01   2.468389645219e-02   0.000000000000e+00  -5.048839449883e-01   1.104709785432e-02   0.000000000000e+00  -4.895544648170e-01 
 -5.968144163489e-03   0.000000000000e+00  -4.805802106857e-01  -1.932369195856e-03   0.000000000000e+00  -4.682941734791e-01  -1.932369195856e-03   0.000000000000e+00  -4.682941734791e-01 
  0.000000000000e+00   0.000000000000e+00  -3.925568759441e-01   0.000000000000e+00   0.000000000000e+00  -3.925568759441e-01  -2.271050773561e-02   0.000000000000e+00  -4.482839703560e-01 
 -1.110857445747e-02   0.000000000000e+00  -5.117744803429e-01  -1.349077327177e-03   0.000000000000e+00  -5.164013504982e-01   2.468389645219e-02   0.000000000000e+00  -5.048839449883e-01 
  1.104709785432e-02   0.000000000000e+00  -4.895544648170e-01  -5.968144163489e-03   0.000000000000e+00  -4.805802106857e-01  -1.932369195856e-03   0.000000000000e+00  -4.682941734791e-01 
 -1.932369195856e-03   0.000000000000e+00  -4.682941734791e-01   0.000000000000e+00  -1.597809940577e-01  -3.718728423119e-01   0.000000000000e+00  -1.597809940577e-01  -3.718728423119e-01 
 -1.566662685946e-03  -1.608655601740e-01  -4.211684465408e-01  -1.328650396317e-03  -1.614580154419e-01  -4.811361134052e-01  -3.040403593332e-03  -1.629839837551e-01  -4.846922159195e-01 
 -6.410629022866e-03  -1.653676182032e-01  -4.873192906380e-01  -7.210193201900e-03  -1.683845967054e-01  -4.771855175495e-01  -6.641253829002e-03  -1.709458082914e-01  -4.698950648308e-01 
 -3.987004049122e-03  -1.726773679256e-01  -4.623398780823e-01  -3.987004049122e-03  -1.726773679256e-01  -4.623398780823e-01   0.000000000000e+00  -1.597809940577e-01  -3.718728423119e-01 
  0.000000000000e+00  -1.597809940577e-01  -3.718728423119e-01  -1.566662685946e-03  -1.608655601740e-01  -4.211684465408e-01  -1.328650396317e-03  -1.614580154419e-01  -4.811361134052e-01 
 -3.040403593332e-03  -1.629839837551e-01  -4.846922159195e-01  -6.410629022866e-03  -1.653676182032e-01  -4.873192906380e-01  -7.210193201900e-03  -1.683845967054e-01  -4.771855175495e-01 
 -6.641253829002e-03  -1.709458082914e-01  -4.698950648308e-01  -3.987004049122e-03  -1.726773679256e-01  -4.623398780823e-01  -3.987004049122e-03  -1.726773679256e-01  -4.623398780823e-01 
  0.000000000000e+00   3.660923242569e-02  -3.854743838310e-01   0.000000000000e+00   3.660923242569e-02  -3.854743838310e-01  -3.172943601385e-03   3.198180347681e-02  -4.303992092609e-01 
 -2.467211335897e-03   3.782957419753e-02  -4.833872318268e-01  -3.495465265587e-03   4.047106951475e-02  -4.804540276527e-01  -6.121804472059e-03   3.883069008589e-02  -4.832964837551e-01 
 -6.299057509750e-03   3.499242663383e-02  -4.788081049919e-01  -5.777343641967e-03   3.668132424355e-02  -4.812615513802e-01  -3.060757881030e-03   3.770424798131e-02  -4.780172705650e-01 
 -3.060757881030e-03   3.770424798131e-02  -4.780172705650e-01   0.000000000000e+00  -1.210619322956e-02  -3.798553347588e-01   0.000000000000e+00  -1.210619322956e-02  -3.798553347588e-01 
 -3.895203815773e-03  -1.354836765677e-02  -4.262967705727e-01  -5.649003200233e-03  -1.697235926986e-02  -4.846529960632e-01  -4.022141452879e-03  -1.752313040197e-02  -4.836553633213e-01 
 -4.056855570525e-03  -1.504303514957e-02  -4.797235131264e-01  -5.277289077640e-03  -1.376730203629e-02  -4.706378877163e-01  -5.462878849357e-03  -1.305309589952e-02  -4.694512188435e-01 
 -2.890927484259e-03  -1.289030257612e-02  -4.641959369183e-01  -2.890927484259e-03  -1.289030257612e-02  -4.641959369183e-01   0.000000000000e+00   3.579882439226e-03  -3.796090483665e-01 
  0.000000000000e+00   3.579882439226e-03  -3.796090483665e-01  -3.817018121481e-03   3.739877371117e-03  -4.247114956379e-01  -3.687061835080e-03   4.827202763408e-03  -4.791591763496e-01 
 -3.832057816908e-03   4.942942410707e-03  -4.780540168285e-01  -5.331512540579e-03   4.249015357345e-03  -4.839097261429e-01  -5.165833514184e-03   4.246209748089e-03  -4.824503958225e-01 
 -4.448333289474e-03   4.864976741374e-03  -4.764238893986e-01  -3.200461156666e-03   4.822103772312e-03  -4.658194482327e-01  -3.200461156666e-03   4.822103772312e-03  -4.658194482327e-01 
  0.000000000000e+00  -3.051480161957e-04  -3.861742317677e-01   0.000000000000e+00  -3.051480161957e-04  -3.861742317677e-01  -4.405787680298e-03  -9.518931037746e-04  -4.336159825325e-01 
 -3.255504416302e-03  -6.119316676632e-04  -4.830155372620e-01  -3.534339368343e-03  -2.226998476544e-04  -4.745893180370e-01  -3.817292395979e-03   1.361610135064e-03  -4.756764769554e-01 
 -4.317338578403e-03   2.145773498341e-03  -4.757289588451e-01  -5.206104367971e-03   1.467558555305e-03  -4.796220064163e-01  -3.061775816604e-03   1.348434714600e-03  -4.763518869877e-01 