# vtk DataFile Version 2.0
Written using VisIt writer
ASCII
DATASET RECTILINEAR_GRID
DIMENSIONS 10 10 10
X_COORDINATES 10 float
  0.000000000000e+00   5.000000000000e-01   1.000000000000e+00   1.500000000000e+00   2.000000000000e+00   2.500000000000e+00   3.000000000000e+00   3.500000000000e+00   4.000000000000e+00 
  4.500000000000e+00 
Y_COORDINATES 10 float
  0.000000000000e+00   5.000000000000e-01   1.000000000000e+00   1.500000000000e+00   2.000000000000e+00   2.500000000000e+00   3.000000000000e+00   3.500000000000e+00   4.000000000000e+00 
  4.500000000000e+00 
Z_COORDINATES 10 float
  0.000000000000e+00   5.000000000000e-01   1.000000000000e+00   1.500000000000e+00   2.000000000000e+00   2.500000000000e+00   3.000000000000e+00   3.500000000000e+00   4.000000000000e+00 
  4.500000000000e+00 
CELL_DATA 729
POINT_DATA 1000
VECTORS velocity float
  0.000000000000e+00  -2.775518298149e-01  -3.783921897411e-01   6.409009434272e-10   2.330132531370e-09   2.665739184948e-09   2.685248091439e-06   6.409978658972e-10   6.235323368742e-10 
  1.103923693299e-01  -2.543850839138e-01  -4.190042018890e-01   6.700733301557e-10   8.142401683453e-13   1.357144891258e-19   6.337064206718e-10   1.724700808836e-07   6.410545982938e-10 
 -1.193424835801e-01  -3.024890720844e-01  -4.561738967896e-01   2.640485945449e-06   6.701442178958e-10   6.409694996989e-10   1.680083369138e-04   2.330132531370e-09   6.664347962371e-10 
 -1.399572640657e-01  -3.466787934303e-01  -4.158847332001e-01   0.000000000000e+00  -2.775518298149e-01  -3.783921897411e-01   6.409690556097e-10   8.142401683453e-13   1.356847106238e-19 
 -4.308749362826e-02  -2.974532842636e-01  -3.794528543949e-01   1.103923693299e-01  -2.543850839138e-01  -4.190042018890e-01   6.409689445874e-10   6.409690556097e-10   6.409690556097e-10 
 -1.497702486813e-02  -2.624382078648e-01  -4.715186655521e-01  -1.193424835801e-01  -3.024890720844e-01  -4.561738967896e-01   1.356847106238e-19   6.336922098171e-10   6.409690556097e-10 
 -1.399572640657e-01  -3.466787934303e-01  -4.158847332001e-01  -1.399572640657e-01  -3.466787934303e-01  -4.158847332001e-01   0.000000000000e+00   2.775187194347e-01  -3.797956109047e-01 
  0.000000000000e+00   2.775187194347e-01  -3.797956109047e-01  -1.305115967989e-01   2.048547118902e-01  -3.977711200714e-01  -1.469513867050e-02   7.723517715931e-02  -4.072947204113e-01 
 -7.803052663803e-02   5.811358988285e-02  -4.215697944164e-01   7.057435065508e-02   7.278262078762e-02  -4.174887835979e-01  -4.975969716907e-02   1.197674497962e-01  -4.308130443096e-01 
  3.574541211128e-02   2.534532248974e-01  -4.271599352360e-01  -1.340000182390e-01   2.886296808720e-01  -4.408087134361e-01  -1.340000182390e-01   2.886296808720e-01  -4.408087134361e-01 
  0.000000000000e+00  -4.330245032907e-02  -4.068921804428e-01   0.000000000000e+00  -4.330245032907e-02  -4.068921804428e-01  -7.052598893642e-02  -4.615587368608e-02  -4.254730045795e-01 
  6.228336691856e-02   8.372230082750e-02  -4.322706162930e-01  -9.130935370922e-02   2.465012483299e-02  -4.566685259342e-01  -7.719626277685e-02  -1.313719600439e-01  -4.464964866638e-01 
 -1.278991550207e-01  -1.133098676801e-01  -4.784207046032e-01   6.380003690720e-02  -1.050933822989e-01  -4.212451577187e-01  -9.372477233410e-02  -9.568788111210e-02  -4.230948686600e-01 
 -9.372477233410e-02  -9.568788111210e-02  -4.230948686600e-01   0.000000000000e+00  -7.325711846352e-02  -3.725738823414e-01   0.000000000000e+00  -7.325711846352e-02  -3.725738823414e-01 
 -1.272087693214e-01  -1.050473079085e-01  -4.251107871532e-01   1.035971343517e-01  -9.566582739353e-02  -4.116440713406e-01   6.570406840183e-04  -1.778637059033e-02  -4.288605749607e-01 
  5.966451764107e-02   1.428498476744e-01  -4.357860386372e-01  -1.181676760316e-01   1.317675560713e-01  -4.609467089176e-01  -8.752077817917e-02  -7.961221784353e-02  -4.396353662014e-01 
 -1.598504185677e-01  -1.039148420095e-01  -4.426553547382e-01  -1.598504185677e-01  -1.039148420095e-01  -4.426553547382e-01   0.000000000000e+00   1.222321763635e-01  -4.001128077507e-01 
  0.000000000000e+00   1.222321763635e-01  -4.001128077507e-01  -1.304815411568e-01   1.253623664379e-01  -4.048511683941e-01  -8.045377582312e-02  -9.470051527023e-02  -4.266689717770e-01 
 -1.173773333430e-01  -1.352167129517e-01  -4.543647766113e-01   1.089961379766e-01  -1.128201037645e-01  -4.221833050251e-01  -3.960662521422e-03  -2.302031498402e-03  -4.424799382687e-01 
  4.304408282042e-02   1.369012445211e-01  -4.431798160076e-01  -1.319370269775e-01   1.659894585609e-01  -4.377155900002e-01  -1.319370269775e-01   1.659894585609e-01  -4.377155900002e-01 
  0.000000000000e+00  -1.120209023356e-01  -3.794102072716e-01   0.000000000000e+00  -1.120209023356e-01  -3.794102072716e-01  -3.898882865906e-02  -1.040392834693e-02  -4.065810143948e-01 
  6.443849205971e-02   1.528960615396e-01  -4.291773438454e-01  -1.323066949844e-01   1.220945417881e-01  -4.535869359970e-01  -7.373083382845e-02  -1.024499386549e-01  -4.391390085220e-01 
 -1.097458973527e-01  -1.384212672710e-01  -4.418122470379e-01   3.671181574464e-02  -1.506901979446e-01  -4.027913510799e-01  -1.133964285254e-01  -1.241031289101e-01  -4.022719860077e-01 
 -1.133964285254e-01  -1.241031289101e-01  -4.022719860077e-01   0.000000000000e+00  -1.496408134699e-01  -3.716834783554e-01   0.000000000000e+00  -1.496408134699e-01  -3.716834783554e-01 
 -1.253722906113e-01  -1.245457977057e-01  -3.981339931488e-01   1.224576309323e-01  -6.232738378458e-04  -4.042395949364e-01   7.585961837322e-03   9.996964782476e-02  -4.384119808674e-01 
  5.658248811960e-02   1.722969859838e-01  -4.473749101162e-01  -1.351326853037e-01   8.015253394842e-02  -4.599411487579e-01  -1.018691882491e-01  -1.280633956194e-01  -4.340786933899e-01 
 -1.302269995213e-01  -1.169241368771e-01  -4.606599807739e-01  -1.302269995213e-01  -1.169241368771e-01  -4.606599807739e-01   0.000000000000e+00   0.000000000000e+00  -3.873136043549e-01 
  0.000000000000e+00   0.000000000000e+00  -3.873136043549e-01  -1.774168014526e-01   0.000000000000e+00  -4.313488900661e-01  -8.891328424215e-02   0.000000000000e+00  -3.745549619198e-01 
 -1.151063740253e-01   0.000000000000e+00  -3.784950375557e-01   2.514823675156e-01   0.000000000000e+00  -4.552616477013e-01   7.546458393335e-02   0.000000000000e+00  -4.618168473244e-01 
  2.709084562957e-02   0.000000000000e+00  -4.537508785725e-01   6.956411525607e-03   0.000000000000e+00  -4.837506711483e-01   6.956411525607e-03   0.000000000000e+00  -4.837506711483e-01 
  0.000000000000e+00   0.000000000000e+00  -3.873136043549e-01   0.000000000000e+00   0.000000000000e+00  -3.873136043549e-01  -1.774168014526e-01   0.000000000000e+00  -4.313488900661e-01 
 -8.891328424215e-02   0.000000000000e+00  -3.745549619198e-01  -1.151063740253e-01   0.000000000000e+00  -3.784950375557e-01   2.514823675156e-01   0.000000000000e+00  -4.552616477013e-01 
  7.546458393335e-02   0.000000000000e+00  -4.618168473244e-01   2.709084562957e-02   0.000000000000e+00  -4.537508785725e-01   6.956411525607e-03   0.000000000000e+00  -4.837506711483e-01 
  6.956411525607e-03   0.000000000000e+00  -4.837506711483e-01   0.000000000000e+00  -2.775518298149e-01  -3.783921897411e-01   0.000000000000e+00  -2.775518298149e-01  -3.783921897411e-01 
 -4.308749362826e-02  -2.974532842636e-01  -3.794528543949e-01   1.103923693299e-01  -2.543850839138e-01  -4.190042018890e-01  -2.149791456759e-02  -2.572845518589e-01  -4.569274783134e-01 
 -1.497702486813e-02  -2.624382078648e-01  -4.715186655521e-01  -1.193424835801e-01  -3.024890720844e-01  -4.561738967896e-01  -4.173932224512e-02  -3.022690415382e-01  -4.217921197414e-01 
 -1.399572640657e-01  -3.466787934303e-01  -4.158847332001e-01  -1.399572640657e-01  -3.466787934303e-01  -4.158847332001e-01   0.000000000000e+00  -2.775518298149e-01  -3.783921897411e-01 
  0.000000000000e+00  -2.775518298149e-01  -3.783921897411e-01  -4.308749362826e-02  -2.974532842636e-01  -3.794528543949e-01   1.103923693299e-01  -2.543850839138e-01  -4.190042018890e-01 
 -2.149791456759e-02  -2.572845518589e-01  -4.569274783134e-01  -1.497702486813e-02  -2.624382078648e-01  -4.715186655521e-01  -1.193424835801e-01  -3.024890720844e-01  -4.561738967896e-01 
 -4.173932224512e-02  -3.022690415382e-01  -4.217921197414e-01  -1.399572640657e-01  -3.466787934303e-01  -4.158847332001e-01  -1.399572640657e-01  -3.466787934303e-01  -4.158847332001e-01 
  0.000000000000e+00   2.775187194347e-01  -3.797956109047e-01   0.000000000000e+00   2.775187194347e-01  -3.797956109047e-01  -1.305115967989e-01   2.048547118902e-01  -3.977711200714e-01 
 -1.469513867050e-02   7.723517715931e-02  -4.072947204113e-01  -7.803052663803e-02   5.811358988285e-02  -4.215697944164e-01   7.057435065508e-02   7.278262078762e-02  -4.174887835979e-01 
 -4.975969716907e-02   1.197674497962e-01  -4.308130443096e-01   3.574541211128e-02   2.534532248974e-01  -4.271599352360e-01  -1.340000182390e-01   2.886296808720e-01  -4.408087134361e-01 
 -1.340000182390e-01   2.886296808720e-01  -4.408087134361e-01   0.000000000000e+00  -4.330245032907e-02  -4.068921804428e-01   0.000000000000e+00  -4.330245032907e-02  -4.068921804428e-01 
 -7.052598893642e-02  -4.615587368608e-02  -4.254730045795e-01   6.228336691856e-02   8.372230082750e-02  -4.322706162930e-01  -9.130935370922e-02   2.465012483299e-02  -4.566685259342e-01 
 -7.719626277685e-02  -1.313719600439e-01  -4.464964866638e-01  -1.278991550207e-01  -1.133098676801e-01  -4.784207046032e-01   6.380003690720e-02  -1.050933822989e-01  -4.212451577187e-01 
 -9.372477233410e-02  -9.568788111210e-02  -4.230948686600e-01  -9.372477233410e-02  -9.568788111210e-02  -4.230948686600e-01   0.000000000000e+00  -7.325711846352e-02  -3.725738823414e-01 
  0.000000000000e+00  -7.325711846352e-02  -3.725738823414e-01  -1.272087693214e-01  -1.050473079085e-01  -4.251107871532e-01   1.035971343517e-01  -9.566582739353e-02  -4.116440713406e-01 
  6.570406840183e-04  -1.778637059033e-02  -4.288605749607e-01   5.966451764107e-02   1.428498476744e-01  -4.357860386372e-01  -1.181676760316e-01   1.317675560713e-01  -4.609467089176e-01 
 -8.752077817917e-02  -7.961221784353e-02  -4.396353662014e-01  -1.598504185677e-01  -1.039148420095e-01  -4.426553547382e-01  -1.598504185677e-01  -1.039148420095e-01  -4.426553547382e-01 
  0.000000000000e+00   1.222321763635e-01  -4.001128077507e-01   0.000000000000e+00   1.222321763635e-01  -4.001128077507e-01  -1.304815411568e-01   1.253623664379e-01  -4.048511683941e-01 
 -8.045377582312e-02  -9.470051527023e-02  -4.266689717770e-01  -1.173773333430e-01  -1.352167129517e-01  -4.543647766113e-01   1.089961379766e-01  -1.128201037645e-01  -4.221833050251e-01 
 -3.960662521422e-03  -2.302031498402e-03  -4.424799382687e-01   4.304408282042e-02   1.369012445211e-01  -4.431798160076e-01  -1.319370269775e-01   1.659894585609e-01  -4.377155900002e-01 
 -1.319370269775e-01   1.659894585609e-01  -4.377155900002e-01   0.000000000000e+00  -1.120209023356e-01  -3.794102072716e-01   0.000000000000e+00  -1.120209023356e-01  -3.794102072716e-01 
 -3.898882865906e-02  -1.040392834693e-02  -4.065810143948e-01   6.443849205971e-02   1.528960615396e-01  -4.291773438454e-01  -1.323066949844e-01   1.220945417881e-01  -4.535869359970e-01 
 -7.373083382845e-02  -1.024499386549e-01  -4.391390085220e-01  -1.097458973527e-01  -1.384212672710e-01  -4.418122470379e-01   3.671181574464e-02  -1.506901979446e-01  -4.027913510799e-01 
 -1.133964285254e-01  -1.241031289101e-01  -4.022719860077e-01  -1.133964285254e-01  -1.241031289101e-01  -4.022719860077e-01   0.000000000000e+00  -1.496408134699e-01  -3.716834783554e-01 
  0.000000000000e+00  -1.496408134699e-01  -3.716834783554e-01  -1.253722906113e-01  -1.245457977057e-01  -3.981339931488e-01   1.224576309323e-01  -6.232738378458e-04  -4.042395949364e-01 
  7.585961837322e-03   9.996964782476e-02  -4.384119808674e-01   5.658248811960e-02   1.722969859838e-01  -4.473749101162e-01  -1.351326853037e-01   8.015253394842e-02  -4.599411487579e-01 
 -1.018691882491e-01  -1.280633956194e-01  -4.340786933899e-01  -1.302269995213e-01  -1.169241368771e-01  -4.606599807739e-01  -1.302269995213e-01  -1.169241368771e-01  -4.606599807739e-01 
  0.000000000000e+00   0.000000000000e+00  -3.873136043549e-01   0.000000000000e+00   0.000000000000e+00  -3.873136043549e-01  -1.774168014526e-01   0.000000000000e+00  -4.313488900661e-01 
 -8.891328424215e-02   0.000000000000e+00  -3.745549619198e-01  -1.151063740253e-01   0.000000000000e+00  -3.784950375557e-01   2.514823675156e-01   0.000000000000e+00  -4.552616477013e-01 
  7.546458393335e-02   0.000000000000e+00  -4.618168473244e-01   2.709084562957e-02   0.000000000000e+00  -4.537508785725e-01   6.956411525607e-03   0.000000000000e+00  -4.837506711483e-01 
  6.956411525607e-03   0.000000000000e+00  -4.837506711483e-01   0.000000000000e+00   0.000000000000e+00  -3.873136043549e-01   0.000000000000e+00   0.000000000000e+00  -3.873136043549e-01 
 -1.774168014526e-01   0.000000000000e+00  -4.313488900661e-01  -8.891328424215e-02   0.000000000000e+00  -3.745549619198e-01  -1.151063740253e-01   0.000000000000e+00  -3.784950375557e-01 
  2.514823675156e-01   0.000000000000e+00  -4.552616477013e-01   7.546458393335e-02   0.000000000000e+00  -4.618168473244e-01   2.709084562957e-02   0.000000000000e+00  -4.537508785725e-01 
  6.956411525607e-03   0.000000000000e+00  -4.837506711483e-01   6.956411525607e-03   0.000000000000e+00  -4.837506711483e-01   0.000000000000e+00  -3.143182992935e-01  -4.500765502453e-01 
  0.000000000000e+00  -3.143182992935e-01  -4.500765502453e-01  -2.508340962231e-02  -3.197091519833e-01  -5.004685521126e-01   1.620917697437e-03  -3.084316253662e-01  -6.516738533974e-01 
 -7.829958572984e-03  -3.121718168259e-01  -6.845726370811e-01  -1.630824431777e-02  -3.293058276176e-01  -7.300884723663e-01  -3.506877273321e-02  -3.487356305122e-01  -6.254283189774e-01 
 -2.487291395664e-02  -3.602122366428e-01  -5.993333458900e-01  -2.790425904095e-02  -3.714384436607e-01  -5.479360818863e-01  -2.790425904095e-02  -3.714384436607e-01  -5.479360818863e-01 
  0.000000000000e+00  -3.143182992935e-01  -4.500765502453e-01   0.000000000000e+00  -3.143182992935e-01  -4.500765502453e-01  -2.508340962231e-02  -3.197091519833e-01  -5.004685521126e-01 
  1.620917697437e-03  -3.084316253662e-01  -6.516738533974e-01  -7.829958572984e-03  -3.121718168259e-01  -6.845726370811e-01  -1.630824431777e-02  -3.293058276176e-01  -7.300884723663e-01 
 -3.506877273321e-02  -3.487356305122e-01  -6.254283189774e-01  -2.487291395664e-02  -3.602122366428e-01  -5.993333458900e-01  -2.790425904095e-02  -3.714384436607e-01  -5.479360818863e-01 
 -2.790425904095e-02  -3.714384436607e-01  -5.479360818863e-01   0.000000000000e+00   1.916306614876e-01  -5.412753820419e-01   0.000000000000e+00   1.916306614876e-01  -5.412753820419e-01 
 -3.702272847295e-02   1.672312766314e-01  -5.396403074265e-01  -1.203821320087e-02   1.512231081724e-01  -6.067676544189e-01  -1.628417894244e-02   1.437509804964e-01  -5.630328059196e-01 
 -8.460922166705e-03   1.640499532223e-01  -6.557216644287e-01  -1.888544857502e-02   1.868352144957e-01  -6.516063809395e-01  -1.032548304647e-02   2.181124687195e-01  -7.043856978416e-01 
 -1.776691153646e-02   2.244409620762e-01  -6.575352549553e-01  -1.776691153646e-02   2.244409620762e-01  -6.575352549553e-01   0.000000000000e+00  -5.324833840132e-02  -5.270986557007e-01 
  0.000000000000e+00  -5.324833840132e-02  -5.270986557007e-01  -3.585904464126e-02  -5.675189197063e-02  -5.591803789139e-01  -1.286275591701e-02  -5.190860480070e-02  -7.174549102783e-01 
 -1.803356222808e-02  -5.714597180486e-02  -6.890892982483e-01  -1.566532999277e-02  -6.403322517872e-02  -6.398736238480e-01  -2.534144930542e-02  -7.224752753973e-02  -5.558970570564e-01 
 -1.513972785324e-02  -7.662698626518e-02  -6.290435791016e-01  -1.913954131305e-02  -7.246566563845e-02  -5.970439314842e-01  -1.913954131305e-02  -7.246566563845e-02  -5.970439314842e-01 
  0.000000000000e+00   1.612379774451e-02  -4.622124433517e-01   0.000000000000e+00   1.612379774451e-02  -4.622124433517e-01  -3.927252069116e-02   1.149748638272e-02  -4.699926078320e-01 
 -1.070460397750e-02   1.193102169782e-02  -6.255578398705e-01  -1.128294039518e-02   1.641837507486e-02  -6.475082039833e-01  -7.354884874076e-03   2.437001466751e-02  -7.287210226059e-01 
 -2.111650072038e-02   2.824909426272e-02  -6.870424151421e-01  -1.765539310873e-02   2.814651280642e-02  -6.161879897118e-01  -2.695006690919e-02   2.032192982733e-02  -5.224721431732e-01 
 -2.695006690919e-02   2.032192982733e-02  -5.224721431732e-01   0.000000000000e+00   9.794808924198e-03  -5.716983675957e-01   0.000000000000e+00   9.794808924198e-03  -5.716983675957e-01 
 -4.243207722902e-02   3.464275272563e-03  -6.000235676765e-01  -1.562184747308e-02  -3.842745441943e-03  -6.285263299942e-01  -2.260248363018e-02  -1.687899231911e-02  -5.518990755081e-01 
 -3.480027196929e-03  -1.417168229818e-02  -6.304147243500e-01  -1.270490977913e-02  -1.467822585255e-03  -6.498770713806e-01  -1.098294928670e-02   6.937316153198e-03  -7.213817238808e-01 
 -1.930803805590e-02   1.233165338635e-02  -6.631560921669e-01  -1.930803805590e-02   1.233165338635e-02  -6.631560921669e-01   0.000000000000e+00  -1.864938996732e-02  -5.166456699371e-01 
  0.000000000000e+00  -1.864938996732e-02  -5.166456699371e-01  -2.905307151377e-02  -3.213183488697e-03  -5.690314769745e-01  -7.196820806712e-03   7.041286211461e-03  -7.314488291740e-01 
 -1.604984700680e-02   1.221637055278e-02  -6.876181960106e-01  -1.009124517441e-02   8.052147924900e-03  -6.142595410347e-01  -2.582821063697e-02  -5.973191931844e-03  -5.554166436195e-01 
 -1.454823371023e-02  -1.273727882653e-02  -6.051709651947e-01  -1.758716441691e-02  -1.028064452112e-02  -5.510709285736e-01  -1.758716441691e-02  -1.028064452112e-02  -5.510709285736e-01 
  0.000000000000e+00  -1.887847855687e-02  -4.443671703339e-01   0.000000000000e+00  -1.887847855687e-02  -4.443671703339e-01  -3.603835776448e-02  -1.936496235430e-02  -4.640547633171e-01 
 -1.847298990469e-04  -1.208585966378e-02  -6.480693817139e-01   1.036210800521e-03   6.978905759752e-03  -6.718953251839e-01   7.151728961617e-03   1.708210818470e-02  -7.439261674881e-01 
 -1.866259239614e-02   1.646915823221e-02  -6.877710819244e-01  -2.149025909603e-02   8.070468902588e-03  -5.816012024879e-01  -1.549019291997e-02   7.603267207742e-03  -4.907805621624e-01 
 -1.549019291997e-02   7.603267207742e-03  -4.907805621624e-01   0.000000000000e+00   0.000000000000e+00  -5.512320995331e-01   0.000000000000e+00   0.000000000000e+00  -5.512320995331e-01 
 -5.051365494728e-02   0.000000000000e+00  -5.514327287674e-01  -1.263593323529e-02   0.000000000000e+00  -5.936860442162e-01  -4.340446554124e-03   0.000000000000e+00  -5.257478356361e-01 
  3.093807026744e-02   0.000000000000e+00  -6.841426491737e-01   4.648660251405e-04   0.000000000000e+00  -7.739024162292e-01  -1.603660546243e-02   0.000000000000e+00  -7.727565169334e-01 
 -3.395890584216e-03   0.000000000000e+00  -7.415688633919e-01  -3.395890584216e-03   0.000000000000e+00  -7.415688633919e-01   0.000000000000e+00   0.000000000000e+00  -5.512320995331e-01 
  0.000000000000e+00   0.000000000000e+00  -5.512320995331e-01  -5.051365494728e-02   0.000000000000e+00  -5.514327287674e-01  -1.263593323529e-02   0.000000000000e+00  -5.936860442162e-01 
 -4.340446554124e-03   0.000000000000e+00  -5.257478356361e-01   3.093807026744e-02   0.000000000000e+00  -6.841426491737e-01   4.648660251405e-04   0.000000000000e+00  -7.739024162292e-01 
 -1.603660546243e-02   0.000000000000e+00  -7.727565169334e-01  -3.395890584216e-03   0.000000000000e+00  -7.415688633919e-01  -3.395890584216e-03   0.000000000000e+00  -7.415688633919e-01 
  0.000000000000e+00  -2.484901994467e-01  -4.176361262798e-01   0.000000000000e+00  -2.484901994467e-01  -4.176361262798e-01  -1.567954942584e-02  -2.544050812721e-01  -5.175590515137e-01 
  1.424975576811e-03  -2.569771409035e-01  -6.134147644043e-01  -4.371794406325e-03  -2.595557868481e-01  -6.074754595757e-01  -1.071676332504e-02  -2.602282464504e-01  -6.016775965691e-01 
 -2.811283059418e-02  -2.701391577721e-01  -6.041784286499e-01  -1.525289192796e-02  -2.769755125046e-01  -5.984153151512e-01  -1.697917282581e-02  -2.854250073433e-01  -5.922322273254e-01 
 -1.697917282581e-02  -2.854250073433e-01  -5.922322273254e-01   0.000000000000e+00  -2.484901994467e-01  -4.176361262798e-01   0.000000000000e+00  -2.484901994467e-01  -4.176361262798e-01 
 -1.567954942584e-02  -2.544050812721e-01  -5.175590515137e-01   1.424975576811e-03  -2.569771409035e-01  -6.134147644043e-01  -4.371794406325e-03  -2.595557868481e-01  -6.074754595757e-01 
 -1.071676332504e-02  -2.602282464504e-01  -6.016775965691e-01  -2.811283059418e-02  -2.701391577721e-01  -6.041784286499e-01  -1.525289192796e-02  -2.769755125046e-01  -5.984153151512e-01 
 -1.697917282581e-02  -2.854250073433e-01  -5.922322273254e-01  -1.697917282581e-02  -2.854250073433e-01  -5.922322273254e-01   0.000000000000e+00   1.371198594570e-01  -4.276702702045e-01 
  0.000000000000e+00   1.371198594570e-01  -4.276702702045e-01  -2.599617838860e-02   1.191091462970e-01  -5.251259803772e-01  -7.710724137723e-03   1.173033416271e-01  -6.231590509415e-01 
 -1.297288294882e-02   1.104166433215e-01  -6.238136887550e-01  -7.285400293767e-03   1.167884543538e-01  -6.158162355423e-01  -1.556308194995e-02   1.251229196787e-01  -6.125117540359e-01 
 -4.176735877991e-03   1.410225778818e-01  -6.019842624664e-01  -1.416505593807e-02   1.474032104015e-01  -6.010527610779e-01  -1.416505593807e-02   1.474032104015e-01  -6.010527610779e-01 
  0.000000000000e+00  -5.159498378634e-02  -4.231241345406e-01   0.000000000000e+00  -5.159498378634e-02  -4.231241345406e-01  -2.148420363665e-02  -4.597482457757e-02  -5.163157582283e-01 
 -4.718827083707e-03  -3.923131898046e-02  -5.989845991135e-01  -1.396312098950e-02  -4.101716727018e-02  -5.973134636879e-01  -1.472974754870e-02  -5.033220723271e-02  -6.012094020844e-01 
 -2.039157599211e-02  -5.828771367669e-02  -5.945797562599e-01  -1.145259942859e-02  -6.609893590212e-02  -5.898235440254e-01  -1.428102795035e-02  -6.654427945614e-02  -5.923626422882e-01 
 -1.428102795035e-02  -6.654427945614e-02  -5.923626422882e-01   0.000000000000e+00   1.328888162971e-02  -4.258382022381e-01   0.000000000000e+00   1.328888162971e-02  -4.258382022381e-01 
 -2.460029162467e-02   9.931531734765e-03  -5.095612406731e-01  -8.310824632645e-03   5.260648671538e-03  -6.053889393806e-01  -8.269594982266e-03   1.024557091296e-02  -6.113499999046e-01 
 -1.757316873409e-03   2.206505276263e-02  -5.992670059204e-01  -1.537103392184e-02   2.694343775511e-02  -5.947943329811e-01  -1.731454767287e-02   2.106843702495e-02  -6.013037562370e-01 
 -1.940665394068e-02   1.832281239331e-02  -5.896446704865e-01  -1.940665394068e-02   1.832281239331e-02  -5.896446704865e-01   0.000000000000e+00   7.134964689612e-03  -4.244904220104e-01 
  0.000000000000e+00   7.134964689612e-03  -4.244904220104e-01  -2.376047894359e-02   6.780570838600e-03  -5.135901570320e-01  -1.426453609020e-02   1.378914894303e-04  -6.121139526367e-01 
 -1.802300848067e-02  -1.133011002094e-02  -6.064424514771e-01  -6.157764699310e-03  -1.642942614853e-02  -6.046023368835e-01  -7.628963794559e-03  -4.941288381815e-03  -6.061373949051e-01 
 -4.135086666793e-03   6.958580575883e-03  -5.927004218102e-01  -1.459241285920e-02   1.107223238796e-02  -5.899344682693e-01  -1.459241285920e-02   1.107223238796e-02  -5.899344682693e-01 
  0.000000000000e+00  -1.795132830739e-02  -4.266612529755e-01   0.000000000000e+00  -1.795132830739e-02  -4.266612529755e-01  -1.608420908451e-02  -6.268838420510e-03  -5.203707218170e-01 
  5.402158712968e-04   9.703291580081e-03  -6.025421619415e-01  -1.157574821264e-02   1.548102311790e-02  -6.002780199051e-01  -1.262553874403e-02   9.269180707633e-03  -6.097630262375e-01 
 -1.927066035569e-02  -3.358682151884e-03  -6.078847050667e-01  -1.321492902935e-02  -1.361773256212e-02  -6.039009690285e-01  -1.344942487776e-02  -1.351290754974e-02  -5.994100570679e-01 
 -1.344942487776e-02  -1.351290754974e-02  -5.994100570679e-01   0.000000000000e+00  -9.909155778587e-03  -4.221340715885e-01   0.000000000000e+00  -9.909155778587e-03  -4.221340715885e-01 
 -2.427211962640e-02  -1.468984037638e-02  -5.104312300682e-01  -1.352283870801e-03  -1.497708167881e-02  -6.058889031410e-01   2.140830736607e-03   1.629442325793e-03  -6.099972128868e-01 
  9.590846486390e-03   1.877714134753e-02  -5.998587608337e-01  -1.234705466777e-02   1.981460861862e-02  -5.979073643684e-01  -2.172243222594e-02   1.118380762637e-02  -6.058694720268e-01 
 -1.196056697518e-02   1.128535624593e-02  -5.808950662613e-01  -1.196056697518e-02   1.128535624593e-02  -5.808950662613e-01   0.000000000000e+00   0.000000000000e+00  -4.204781055450e-01 
  0.000000000000e+00   0.000000000000e+00  -4.204781055450e-01  -3.462086617947e-02   0.000000000000e+00  -5.145546793938e-01  -1.542657893151e-02   0.000000000000e+00  -6.157476902008e-01 
 -1.757643069141e-03   0.000000000000e+00  -5.991164445877e-01   2.442364953458e-02   0.000000000000e+00  -5.956628918648e-01   9.835566394031e-03   0.000000000000e+00  -5.981347560883e-01 
 -1.006490085274e-02   0.000000000000e+00  -5.888149142265e-01  -2.876068698242e-03   0.000000000000e+00  -5.767254829407e-01  -2.876068698242e-03   0.000000000000e+00  -5.767254829407e-01 
  0.000000000000e+00   0.000000000000e+00  -4.204781055450e-01   0.000000000000e+00   0.000000000000e+00  -4.204781055450e-01  -3.462086617947e-02   0.000000000000e+00  -5.145546793938e-01 
 -1.542657893151e-02   0.000000000000e+00  -6.157476902008e-01  -1.757643069141e-03   0.000000000000e+00  -5.991164445877e-01   2.442364953458e-02   0.000000000000e+00  -5.956628918648e-01 
  9.835566394031e-03   0.000000000000e+00  -5.981347560883e-01  -1.006490085274e-02   0.000000000000e+00  -5.888149142265e-01  -2.876068698242e-03   0.000000000000e+00  -5.767254829407e-01 
 -2.876068698242e-03   0.000000000000e+00  -5.767254829407e-01   0.000000000000e+00  -1.912328153849e-01  -4.170791506767e-01   0.000000000000e+00  -1.912328153849e-01  -4.170791506767e-01 
 -4.733609035611e-03  -1.911417692900e-01  -5.099432468414e-01  -4.558588378131e-03  -1.929748058319e-01  -6.132735610008e-01  -6.687103770673e-03  -1.957676112652e-01  -6.166929602623e-01 
 -9.836030192673e-03  -1.995462328196e-01  -6.193634271622e-01  -9.215264581144e-03  -2.036808282137e-01  -6.049231886864e-01  -8.901244960725e-03  -2.073834836483e-01  -5.955687165260e-01 
 -4.598123021424e-03  -2.096869349480e-01  -5.849404335022e-01  -4.598123021424e-03  -2.096869349480e-01  -5.849404335022e-01   0.000000000000e+00  -1.912328153849e-01  -4.170791506767e-01 
  0.000000000000e+00  -1.912328153849e-01  -4.170791506767e-01  -4.733609035611e-03  -1.911417692900e-01  -5.099432468414e-01  -4.558588378131e-03  -1.929748058319e-01  -6.132735610008e-01 
 -6.687103770673e-03  -1.957676112652e-01  -6.166929602623e-01  -9.836030192673e-03  -1.995462328196e-01  -6.193634271622e-01  -9.215264581144e-03  -2.036808282137e-01  -6.049231886864e-01 
 -8.901244960725e-03  -2.073834836483e-01  -5.955687165260e-01  -4.598123021424e-03  -2.096869349480e-01  -5.849404335022e-01  -4.598123021424e-03  -2.096869349480e-01  -5.849404335022e-01 
  0.000000000000e+00   8.151385188103e-02  -4.330587089062e-01   0.000000000000e+00   8.151385188103e-02  -4.330587089062e-01  -6.780506111681e-03   7.290162146091e-02  -5.233487486839e-01 
 -5.680465605110e-03   7.751878350973e-02  -6.215199828148e-01  -6.456674542278e-03   8.176307380199e-02  -6.159412264824e-01  -9.831609204412e-03   7.987178117037e-02  -6.180540919304e-01 
 -8.462901227176e-03   7.875923812389e-02  -6.122997999191e-01  -8.007372729480e-03   8.185925334692e-02  -6.147545576096e-01  -3.267458872870e-03   8.372545987368e-02  -6.089577674866e-01 
 -3.267458872870e-03   8.372545987368e-02  -6.089577674866e-01   0.000000000000e+00  -3.354855999351e-02  -4.198105037212e-01   0.000000000000e+00  -3.354855999351e-02  -4.198105037212e-01 
 -7.215138990432e-03  -3.454326838255e-02  -5.127080678940e-01  -9.847537614405e-03  -3.850482404232e-02  -6.165623664856e-01  -6.594027858227e-03  -3.825575858355e-02  -6.136990785599e-01 
 -6.881901994348e-03  -3.525010868907e-02  -6.075535416603e-01  -8.100619539618e-03  -3.476370126009e-02  -5.961009860039e-01  -8.025054819882e-03  -3.456687927246e-02  -5.911992192268e-01 
 -3.543688682839e-03  -3.487745299935e-02  -5.823646783829e-01  -3.543688682839e-03  -3.487745299935e-02  -5.823646783829e-01   0.000000000000e+00   9.393516927958e-03  -4.225344359875e-01 
  0.000000000000e+00   9.393516927958e-03  -4.225344359875e-01  -7.286111824214e-03   9.230297990143e-03  -5.149535536766e-01  -6.785308010876e-03   1.102088298649e-02  -6.115491986275e-01 
 -6.793029606342e-03   1.098020654172e-02  -6.084871292114e-01  -9.093715809286e-03   9.874454699457e-03  -6.160186529160e-01  -7.356396876276e-03   1.048796623945e-02  -6.138244867325e-01 
 -6.560491397977e-03   1.106618531048e-02  -6.053145527840e-01  -4.125198349357e-03   1.073018740863e-02  -5.921034812927e-01  -4.125198349357e-03   1.073018740863e-02  -5.921034812927e-01 
  0.000000000000e+00  -1.998839667067e-03  -4.304220080376e-01   0.000000000000e+00  -1.998839667067e-03  -4.304220080376e-01  -7.817174308002e-03  -2.816325752065e-03  -5.234697461128e-01 
 -6.154268514365e-03  -2.298533683643e-03  -6.173032522202e-01  -6.178120616823e-03  -1.351366750896e-03  -6.057355403900e-01  -6.754394154996e-03   1.268068444915e-03  -6.039648056030e-01 
 -7.031518500298e-03   1.845615217462e-03  -6.028609871864e-01  -8.208614774048e-03   4.156526993029e-04  -6.074896454811e-01  -3.699888708070e-03   3.948838566430e-04  -6.017253398895e-01 