# vtk DataFile Version 2.0
Written using VisIt writer
ASCII
DATASET RECTILINEAR_GRID
DIMENSIONS 10 10 10
X_COORDINATES 10 float
  0.000000000000e+00   5.000000000000e-01   1.000000000000e+00   1.500000000000e+00   2.000000000000e+00   2.500000000000e+00   3.000000000000e+00   3.500000000000e+00   4.000000000000e+00 
  4.500000000000e+00 
Y_COORDINATES 10 float
  0.000000000000e+00   5.000000000000e-01   1.000000000000e+00   1.500000000000e+00   2.000000000000e+00   2.500000000000e+00   3.000000000000e+00   3.500000000000e+00   4.000000000000e+00 
  4.500000000000e+00 
Z_COORDINATES 10 float
  0.000000000000e+00   5.000000000000e-01   1.000000000000e+00   1.500000000000e+00   2.000000000000e+00   2.500000000000e+00   3.000000000000e+00   3.500000000000e+00   4.000000000000e+00 
  4.500000000000e+00 
CELL_DATA 729
POINT_DATA 1000
VECTORS velocity float
  0.000000000000e+00  -1.258354485035e-01  -2.482410818338e-01   3.251200000000e+04   0.000000000000e+00   0.000000000000e+00   0.000000000000e+00   0.000000000000e+00   0.000000000000e+00 
  8.165656775236e-02  -7.494202256203e-02  -1.578597724438e-01   0.000000000000e+00   0.000000000000e+00   0.000000000000e+00   0.000000000000e+00   1.431655808000e+09   1.070945600000e+09 
 -1.194529384375e-01  -7.783280313015e-02  -1.608377248049e-01   1.071994176000e+09   0.000000000000e+00   0.000000000000e+00   0.000000000000e+00   0.000000000000e+00   0.000000000000e+00 
  4.515721648932e-02  -2.075611203909e-01  -1.845861524343e-01   0.000000000000e+00  -1.258354485035e-01  -2.482410818338e-01   1.070945600000e+09   0.000000000000e+00   0.000000000000e+00 
  1.962500810623e-02  -1.277913004160e-01  -2.053760737181e-01   8.165656775236e-02  -7.494202256203e-02  -1.578597724438e-01   1.431655808000e+09   1.070945600000e+09   0.000000000000e+00 
 -5.907304212451e-02  -6.200433522463e-02  -1.355650871992e-01  -1.194529384375e-01  -7.783280313015e-02  -1.608377248049e-01   0.000000000000e+00   0.000000000000e+00   1.071644672000e+09 
  4.515721648932e-02  -2.075611203909e-01  -1.845861524343e-01   4.515721648932e-02  -2.075611203909e-01  -1.845861524343e-01   0.000000000000e+00  -4.423054680228e-02  -2.022636383772e-01 
  0.000000000000e+00  -4.423054680228e-02  -2.022636383772e-01  -9.611608460546e-03  -8.127640187740e-02  -1.999457329512e-01   1.256760656834e-01  -2.357955873013e-01  -1.864298582077e-01 
  4.051525145769e-03  -1.606692373753e-01  -1.851038783789e-01   3.194459155202e-02  -6.629124283791e-02  -1.407580375671e-01   2.809240482748e-02  -2.752157114446e-02  -1.418462842703e-01 
 -1.202133670449e-02  -5.109191685915e-02  -1.401555985212e-01   1.621099654585e-03  -1.178055815399e-02  -1.478331983089e-01   1.621099654585e-03  -1.178055815399e-02  -1.478331983089e-01 
  0.000000000000e+00   6.215815246105e-02  -1.836737543344e-01   0.000000000000e+00   6.215815246105e-02  -1.836737543344e-01   8.458320982754e-03   2.751787006855e-02  -1.744402498007e-01 
  4.218253493309e-02   1.134090684354e-02  -1.454389095306e-01   7.733317464590e-02  -6.449723988771e-02  -1.494470834732e-01   1.173255033791e-02  -9.028644114733e-02  -1.537585109472e-01 
 -7.009361684322e-02  -5.208852142096e-02  -1.869372874498e-01   4.732679735753e-05  -5.925122648478e-03  -1.400914639235e-01   1.974534802139e-02  -4.123883694410e-02  -1.485131233931e-01 
  1.974534802139e-02  -4.123883694410e-02  -1.485131233931e-01   0.000000000000e+00  -3.433754295111e-02  -2.248934656382e-01   0.000000000000e+00  -3.433754295111e-02  -2.248934656382e-01 
 -2.571730129421e-02  -4.312586039305e-02  -2.681679427624e-01   1.691768914461e-01  -5.727358534932e-02  -1.708619594574e-01   8.373232930899e-02  -8.485575765371e-02  -1.460504829884e-01 
 -4.114080592990e-02  -5.793267115951e-02  -1.425407826900e-01  -4.435590282083e-02  -2.265485562384e-02  -1.643336862326e-01  -3.468796610832e-02   1.384400296956e-02  -1.586411297321e-01 
 -9.215883910656e-02  -1.088244169950e-01  -2.017306238413e-01  -9.215883910656e-02  -1.088244169950e-01  -2.017306238413e-01   0.000000000000e+00   2.632818184793e-02  -1.860951185226e-01 
  0.000000000000e+00   2.632818184793e-02  -1.860951185226e-01   6.341143511236e-03  -4.643833637238e-02  -1.936346441507e-01   1.062744334340e-01  -5.329872667789e-02  -1.781377792358e-01 
  3.945125732571e-03  -2.631406672299e-02  -1.926422119141e-01   2.804801240563e-02  -8.793270098977e-04  -1.538589298725e-01   8.843301981688e-02  -6.535568088293e-02  -1.453011184931e-01 
 -3.215372189879e-02  -3.301985561848e-02  -1.478788852692e-01  -1.464517861605e-01  -3.474713116884e-02  -1.659217774868e-01  -1.464517861605e-01  -3.474713116884e-02  -1.659217774868e-01 
  0.000000000000e+00   2.484754286706e-02  -2.006680965424e-01   0.000000000000e+00   2.484754286706e-02  -2.006680965424e-01  -1.512998621911e-02  -4.069657623768e-02  -1.776188760996e-01 
  1.874276902527e-03   5.453119054437e-02  -1.607710570097e-01   4.782089591026e-02   4.048530478030e-03  -1.664298921824e-01   6.302918493748e-02   1.360775344074e-02  -1.853056848049e-01 
  4.972204938531e-02  -4.425334185362e-02  -1.988225281239e-01   7.313916832209e-02   6.724566686898e-03  -1.478860974312e-01   3.174020349979e-02  -5.176442116499e-02  -1.491055488586e-01 
  3.174020349979e-02  -5.176442116499e-02  -1.491055488586e-01   0.000000000000e+00   6.582032889128e-02  -2.612988054752e-01   0.000000000000e+00   6.582032889128e-02  -2.612988054752e-01 
 -2.756909467280e-02  -2.684712596238e-02  -2.561494112015e-01   8.309571444988e-02   9.207092225552e-03  -1.824961453676e-01   1.132876202464e-01  -2.442917414010e-02  -1.600598841906e-01 
 -1.074188202620e-02   2.026017941535e-02  -1.638742238283e-01   5.762891471386e-02   4.068295657635e-02  -1.727011501789e-01   3.906492516398e-02  -5.583344958723e-03  -1.710971891880e-01 
  6.389836966991e-02  -1.310611069202e-01  -2.107178270817e-01   6.389836966991e-02  -1.310611069202e-01  -2.107178270817e-01   0.000000000000e+00   0.000000000000e+00  -2.140152752399e-01 
  0.000000000000e+00   0.000000000000e+00  -2.140152752399e-01  -5.919108167291e-03   0.000000000000e+00  -1.995978802443e-01  -1.318643838167e-01   0.000000000000e+00  -2.088116258383e-01 
  3.125977888703e-02   0.000000000000e+00  -2.462644577026e-01   1.350800246000e-01   0.000000000000e+00  -2.199307233095e-01   2.664087712765e-01   0.000000000000e+00  -1.481747776270e-01 
  1.095130667090e-01   0.000000000000e+00  -1.391764581203e-01   1.550612896681e-01   0.000000000000e+00  -1.365851759911e-01   1.550612896681e-01   0.000000000000e+00  -1.365851759911e-01 
  0.000000000000e+00   0.000000000000e+00  -2.140152752399e-01   0.000000000000e+00   0.000000000000e+00  -2.140152752399e-01  -5.919108167291e-03   0.000000000000e+00  -1.995978802443e-01 
 -1.318643838167e-01   0.000000000000e+00  -2.088116258383e-01   3.125977888703e-02   0.000000000000e+00  -2.462644577026e-01   1.350800246000e-01   0.000000000000e+00  -2.199307233095e-01 
  2.664087712765e-01   0.000000000000e+00  -1.481747776270e-01   1.095130667090e-01   0.000000000000e+00  -1.391764581203e-01   1.550612896681e-01   0.000000000000e+00  -1.365851759911e-01 
  1.550612896681e-01   0.000000000000e+00  -1.365851759911e-01   0.000000000000e+00  -1.258354485035e-01  -2.482410818338e-01   0.000000000000e+00  -1.258354485035e-01  -2.482410818338e-01 
  1.962500810623e-02  -1.277913004160e-01  -2.053760737181e-01   8.165656775236e-02  -7.494202256203e-02  -1.578597724438e-01   8.908330462873e-03  -4.699376225471e-02  -1.393090784550e-01 
 -5.907304212451e-02  -6.200433522463e-02  -1.355650871992e-01  -1.194529384375e-01  -7.783280313015e-02  -1.608377248049e-01  -4.387419670820e-02  -8.992253243923e-02  -1.664584428072e-01 
  4.515721648932e-02  -2.075611203909e-01  -1.845861524343e-01   4.515721648932e-02  -2.075611203909e-01  -1.845861524343e-01   0.000000000000e+00  -1.258354485035e-01  -2.482410818338e-01 
  0.000000000000e+00  -1.258354485035e-01  -2.482410818338e-01   1.962500810623e-02  -1.277913004160e-01  -2.053760737181e-01   8.165656775236e-02  -7.494202256203e-02  -1.578597724438e-01 
  8.908330462873e-03  -4.699376225471e-02  -1.393090784550e-01  -5.907304212451e-02  -6.200433522463e-02  -1.355650871992e-01  -1.194529384375e-01  -7.783280313015e-02  -1.608377248049e-01 
 -4.387419670820e-02  -8.992253243923e-02  -1.664584428072e-01   4.515721648932e-02  -2.075611203909e-01  -1.845861524343e-01   4.515721648932e-02  -2.075611203909e-01  -1.845861524343e-01 
  0.000000000000e+00  -4.423054680228e-02  -2.022636383772e-01   0.000000000000e+00  -4.423054680228e-02  -2.022636383772e-01  -9.611608460546e-03  -8.127640187740e-02  -1.999457329512e-01 
  1.256760656834e-01  -2.357955873013e-01  -1.864298582077e-01   4.051525145769e-03  -1.606692373753e-01  -1.851038783789e-01   3.194459155202e-02  -6.629124283791e-02  -1.407580375671e-01 
  2.809240482748e-02  -2.752157114446e-02  -1.418462842703e-01  -1.202133670449e-02  -5.109191685915e-02  -1.401555985212e-01   1.621099654585e-03  -1.178055815399e-02  -1.478331983089e-01 
  1.621099654585e-03  -1.178055815399e-02  -1.478331983089e-01   0.000000000000e+00   6.215815246105e-02  -1.836737543344e-01   0.000000000000e+00   6.215815246105e-02  -1.836737543344e-01 
  8.458320982754e-03   2.751787006855e-02  -1.744402498007e-01   4.218253493309e-02   1.134090684354e-02  -1.454389095306e-01   7.733317464590e-02  -6.449723988771e-02  -1.494470834732e-01 
  1.173255033791e-02  -9.028644114733e-02  -1.537585109472e-01  -7.009361684322e-02  -5.208852142096e-02  -1.869372874498e-01   4.732679735753e-05  -5.925122648478e-03  -1.400914639235e-01 
  1.974534802139e-02  -4.123883694410e-02  -1.485131233931e-01   1.974534802139e-02  -4.123883694410e-02  -1.485131233931e-01   0.000000000000e+00  -3.433754295111e-02  -2.248934656382e-01 
  0.000000000000e+00  -3.433754295111e-02  -2.248934656382e-01  -2.571730129421e-02  -4.312586039305e-02  -2.681679427624e-01   1.691768914461e-01  -5.727358534932e-02  -1.708619594574e-01 
  8.373232930899e-02  -8.485575765371e-02  -1.460504829884e-01  -4.114080592990e-02  -5.793267115951e-02  -1.425407826900e-01  -4.435590282083e-02  -2.265485562384e-02  -1.643336862326e-01 
 -3.468796610832e-02   1.384400296956e-02  -1.586411297321e-01  -9.215883910656e-02  -1.088244169950e-01  -2.017306238413e-01  -9.215883910656e-02  -1.088244169950e-01  -2.017306238413e-01 
  0.000000000000e+00   2.632818184793e-02  -1.860951185226e-01   0.000000000000e+00   2.632818184793e-02  -1.860951185226e-01   6.341143511236e-03  -4.643833637238e-02  -1.936346441507e-01 
  1.062744334340e-01  -5.329872667789e-02  -1.781377792358e-01   3.945125732571e-03  -2.631406672299e-02  -1.926422119141e-01   2.804801240563e-02  -8.793270098977e-04  -1.538589298725e-01 
  8.843301981688e-02  -6.535568088293e-02  -1.453011184931e-01  -3.215372189879e-02  -3.301985561848e-02  -1.478788852692e-01  -1.464517861605e-01  -3.474713116884e-02  -1.659217774868e-01 
 -1.464517861605e-01  -3.474713116884e-02  -1.659217774868e-01   0.000000000000e+00   2.484754286706e-02  -2.006680965424e-01   0.000000000000e+00   2.484754286706e-02  -2.006680965424e-01 
 -1.512998621911e-02  -4.069657623768e-02  -1.776188760996e-01   1.874276902527e-03   5.453119054437e-02  -1.607710570097e-01   4.782089591026e-02   4.048530478030e-03  -1.664298921824e-01 
  6.302918493748e-02   1.360775344074e-02  -1.853056848049e-01   4.972204938531e-02  -4.425334185362e-02  -1.988225281239e-01   7.313916832209e-02   6.724566686898e-03  -1.478860974312e-01 
  3.174020349979e-02  -5.176442116499e-02  -1.491055488586e-01   3.174020349979e-02  -5.176442116499e-02  -1.491055488586e-01   0.000000000000e+00   6.582032889128e-02  -2.612988054752e-01 
  0.000000000000e+00   6.582032889128e-02  -2.612988054752e-01  -2.756909467280e-02  -2.684712596238e-02  -2.561494112015e-01   8.309571444988e-02   9.207092225552e-03  -1.824961453676e-01 
  1.132876202464e-01  -2.442917414010e-02  -1.600598841906e-01  -1.074188202620e-02   2.026017941535e-02  -1.638742238283e-01   5.762891471386e-02   4.068295657635e-02  -1.727011501789e-01 
  3.906492516398e-02  -5.583344958723e-03  -1.710971891880e-01   6.389836966991e-02  -1.310611069202e-01  -2.107178270817e-01   6.389836966991e-02  -1.310611069202e-01  -2.107178270817e-01 
  0.000000000000e+00   0.000000000000e+00  -2.140152752399e-01   0.000000000000e+00   0.000000000000e+00  -2.140152752399e-01  -5.919108167291e-03   0.000000000000e+00  -1.995978802443e-01 
 -1.318643838167e-01   0.000000000000e+00  -2.088116258383e-01   3.125977888703e-02   0.000000000000e+00  -2.462644577026e-01   1.350800246000e-01   0.000000000000e+00  -2.199307233095e-01 
  2.664087712765e-01   0.000000000000e+00  -1.481747776270e-01   1.095130667090e-01   0.000000000000e+00  -1.391764581203e-01   1.550612896681e-01   0.000000000000e+00  -1.365851759911e-01 
  1.550612896681e-01   0.000000000000e+00  -1.365851759911e-01   0.000000000000e+00   0.000000000000e+00  -2.140152752399e-01   0.000000000000e+00   0.000000000000e+00  -2.140152752399e-01 
 -5.919108167291e-03   0.000000000000e+00  -1.995978802443e-01  -1.318643838167e-01   0.000000000000e+00  -2.088116258383e-01   3.125977888703e-02   0.000000000000e+00  -2.462644577026e-01 
  1.350800246000e-01   0.000000000000e+00  -2.199307233095e-01   2.664087712765e-01   0.000000000000e+00  -1.481747776270e-01   1.095130667090e-01   0.000000000000e+00  -1.391764581203e-01 
  1.550612896681e-01   0.000000000000e+00  -1.365851759911e-01   1.550612896681e-01   0.000000000000e+00  -1.365851759911e-01   0.000000000000e+00  -1.014412790537e-01  -8.937479853630e-01 
  0.000000000000e+00  -1.014412790537e-01  -8.937479853630e-01   4.468232095242e-01  -1.893926225603e-02  -7.292445898056e-01   7.415747046471e-01  -4.226376861334e-02  -5.534715056419e-01 
  1.912301182747e-01   4.452655464411e-02  -4.611096978188e-01   0.000000000000e+00   5.413181781769e-01  -6.443490833044e-02  -1.386097446084e-02   1.249683499336e+00  -9.083137512207e-01 
 -1.836084760725e-02   5.363603830338e-01  -8.849376440048e-01   2.604260481894e-02   4.143647849560e-02  -1.541384216398e-02   2.604260481894e-02   4.143647849560e-02  -1.541384216398e-02 
  0.000000000000e+00  -1.014412790537e-01  -8.937479853630e-01   0.000000000000e+00  -1.014412790537e-01  -8.937479853630e-01   4.468232095242e-01  -1.893926225603e-02  -7.292445898056e-01 
  7.415747046471e-01  -4.226376861334e-02  -5.534715056419e-01   1.912301182747e-01   4.452655464411e-02  -4.611096978188e-01   0.000000000000e+00   5.413181781769e-01  -6.443490833044e-02 
 -1.386097446084e-02   1.249683499336e+00  -9.083137512207e-01  -1.836084760725e-02   5.363603830338e-01  -8.849376440048e-01   2.604260481894e-02   4.143647849560e-02  -1.541384216398e-02 
  2.604260481894e-02   4.143647849560e-02  -1.541384216398e-02   0.000000000000e+00  -3.327809646726e-02  -9.945294857025e-01   0.000000000000e+00  -3.327809646726e-02  -9.945294857025e-01 
  3.004418611526e-01  -4.141448810697e-02  -7.642132043839e-01   4.542627930641e-01  -1.373021602631e-01  -8.805885910988e-01   2.789125442505e-01  -9.556711465120e-02  -5.699304342270e-01 
  4.622286185622e-02   4.307178556919e-01  -5.924196168780e-02  -3.235698444769e-03   1.245183706284e+00  -8.970138430595e-01  -5.789044126868e-02   4.336380362511e-01  -7.930567264557e-01 
 -3.857117891312e-01   8.597681522369e-01  -5.216680839658e-02  -3.857117891312e-01   8.597681522369e-01  -5.216680839658e-02   0.000000000000e+00   1.330725699663e-01  -1.172660350800e+00 
  0.000000000000e+00   1.330725699663e-01  -1.172660350800e+00   2.714707851410e-01  -4.506755620241e-02  -8.312839269638e-01   5.176339149475e-01  -1.238936111331e-01  -7.067502140999e-01 
  6.494035720825e-01  -8.540895581245e-02  -6.479051113129e-01   1.075034365058e-01  -7.108151912689e-02  -4.624149575830e-02  -8.086548447609e-01   0.000000000000e+00   7.264302372932e-01 
 -3.550152480602e-01   1.618835180998e-01   2.304598838091e-01  -5.657653808594e-01   4.382854998112e-01  -3.897678554058e-01  -5.657653808594e-01   4.382854998112e-01  -3.897678554058e-01 
  0.000000000000e+00   8.516595512629e-02  -9.129348993301e-01   0.000000000000e+00   8.516595512629e-02  -9.129348993301e-01   4.221812486649e-01  -1.728176698089e-02  -9.016985297203e-01 
  5.981281995773e-01  -5.614562332630e-02  -7.184718251228e-01   7.023664116859e-01  -7.034887373447e-02  -6.439382433891e-01  -9.895154088736e-02   6.181699410081e-02  -5.745922029018e-02 
 -2.144114494324e+00   1.016392838210e-03   2.341914921999e-01  -6.691216826439e-01   2.107437700033e-01   4.409657046199e-02  -9.340005517006e-01   3.153256475925e-01  -6.950486451387e-02 
 -9.340005517006e-01   3.153256475925e-01  -6.950486451387e-02   0.000000000000e+00   3.211800754070e-02  -1.016131520271e+00   0.000000000000e+00   3.211800754070e-02  -1.016131520271e+00 
  2.888199388981e-01  -6.462427973747e-02  -9.898385405540e-01   4.401614069939e-01  -2.288011368364e-03  -7.708100676537e-01   6.799796223640e-01  -6.887558265589e-04  -6.568024754524e-01 
  6.979332566261e-01   1.186715289950e-01  -7.860804200172e-01  -3.907970190048e-01   1.666363030672e-01   2.347456663847e-02  -3.335505127907e-01   2.050088047981e-01  -2.802550494671e-01 
 -2.270790636539e-01   8.120621740818e-02   2.719608694315e-02  -2.270790636539e-01   8.120621740818e-02   2.719608694315e-02   0.000000000000e+00   1.101958230138e-01  -1.068920135498e+00 
  0.000000000000e+00   1.101958230138e-01  -1.068920135498e+00   2.871894836426e-01   1.167071089149e-01  -7.652490735054e-01   3.786553144455e-01   1.055387109518e-01  -9.373245239258e-01 
  6.748839020729e-01  -2.057665139437e-01  -7.469232678413e-01   6.837518811226e-01  -8.505539596081e-02  -7.722824811935e-01  -2.126863002777e-01  -9.928866289556e-03  -1.633170992136e-01 
  5.014423727989e-01  -2.440543174744e-01  -6.101945042610e-01  -1.691417098045e-01   1.196462288499e-02  -4.474160075188e-01  -1.691417098045e-01   1.196462288499e-02  -4.474160075188e-01 
  0.000000000000e+00  -2.007581526414e-03  -1.204097986221e+00   0.000000000000e+00  -2.007581526414e-03  -1.204097986221e+00   1.479319930077e-01   8.417293429375e-02  -1.644811868668e+00 
  2.823588550091e-01   2.371712960303e-02  -1.205049991608e+00   5.485743284225e-01  -3.666098788381e-02  -6.544137001038e-01   1.439861059189e-01   2.448411658406e-02  -4.417949199677e+00 
  7.228896021843e-01   3.214756250381e-01  -2.559632301331e+00  -5.413675308228e-01  -5.700156837702e-02  -5.626046657562e-01  -9.028324484825e-01  -9.037943929434e-02  -6.436695456505e-01 
 -9.028324484825e-01  -9.037943929434e-02  -6.436695456505e-01   0.000000000000e+00   0.000000000000e+00  -1.488975882530e+00   0.000000000000e+00   0.000000000000e+00  -1.488975882530e+00 
  2.136309593916e-01   0.000000000000e+00  -1.482472538948e+00   3.125027120113e-01   0.000000000000e+00  -1.496435046196e+00   3.955547511578e-01   0.000000000000e+00  -5.969293713570e-01 
  7.767153978348e-01   0.000000000000e+00  -8.334473609924e+00   1.862928271294e+00   0.000000000000e+00  -6.000217914581e+00   3.845454752445e-01  -8.268060162663e-03  -1.463075280190e+00 
 -2.279593646526e-01   0.000000000000e+00  -6.341481953859e-02  -2.279593646526e-01   0.000000000000e+00  -6.341481953859e-02   0.000000000000e+00   0.000000000000e+00  -1.488975882530e+00 
  0.000000000000e+00   0.000000000000e+00  -1.488975882530e+00   2.136309593916e-01   0.000000000000e+00  -1.482472538948e+00   3.125027120113e-01   0.000000000000e+00  -1.496435046196e+00 
  3.955547511578e-01   0.000000000000e+00  -5.969293713570e-01   7.767153978348e-01   0.000000000000e+00  -8.334473609924e+00   1.862928271294e+00   0.000000000000e+00  -6.000217914581e+00 
  3.845454752445e-01  -8.268060162663e-03  -1.463075280190e+00  -2.279593646526e-01   0.000000000000e+00  -6.341481953859e-02  -2.279593646526e-01   0.000000000000e+00  -6.341481953859e-02 
  0.000000000000e+00   2.599782682955e-02  -2.775050401688e-01   0.000000000000e+00   2.599782682955e-02  -2.775050401688e-01   2.531189024448e-01   1.154823154211e-01  -3.078742325306e-01 
  4.159106314182e-01   2.275984920561e-02  -3.780580461025e-01   3.211519122124e-01   4.181598126888e-02  -3.945878148079e-01   0.000000000000e+00   3.982336521149e-01  -1.000000014901e-01 
  0.000000000000e+00   0.000000000000e+00  -9.772109389305e-01  -1.201767288148e-02   5.679399967194e-01  -7.909134030342e-01  -4.629709944129e-02   0.000000000000e+00  -4.996497035027e-01 
 -4.629709944129e-02   0.000000000000e+00  -4.996497035027e-01   0.000000000000e+00   2.599782682955e-02  -2.775050401688e-01   0.000000000000e+00   2.599782682955e-02  -2.775050401688e-01 
  2.531189024448e-01   1.154823154211e-01  -3.078742325306e-01   4.159106314182e-01   2.275984920561e-02  -3.780580461025e-01   3.211519122124e-01   4.181598126888e-02  -3.945878148079e-01 
  0.000000000000e+00   3.982336521149e-01  -1.000000014901e-01   0.000000000000e+00   0.000000000000e+00  -9.772109389305e-01  -1.201767288148e-02   5.679399967194e-01  -7.909134030342e-01 
 -4.629709944129e-02   0.000000000000e+00  -4.996497035027e-01  -4.629709944129e-02   0.000000000000e+00  -4.996497035027e-01   0.000000000000e+00  -2.860254608095e-02  -4.191398024559e-01 
  0.000000000000e+00  -2.860254608095e-02  -4.191398024559e-01   1.966910213232e-01  -2.118503488600e-02  -3.547548949718e-01   1.601053476334e-01  -4.903359338641e-02  -5.228186249733e-01 
  2.524145245552e-01  -6.604201346636e-02  -5.532718896866e-01  -5.706581473351e-02   5.408738255501e-01  -4.318997263908e-01  -1.884655207396e-01   8.157514929771e-01  -7.712938785553e-01 
  0.000000000000e+00   8.841789960861e-01  -4.944100677967e-01  -8.690766245127e-02   1.181706070900e+00  -4.739034473896e-01  -8.690766245127e-02   1.181706070900e+00  -4.739034473896e-01 
  0.000000000000e+00   1.935897469521e-01  -4.338959157467e-01   0.000000000000e+00   1.935897469521e-01  -4.338959157467e-01   1.701681762934e-01   9.583276696503e-03  -4.134578406811e-01 
  2.458255141973e-01  -4.178078845143e-02  -5.336847305298e-01   4.657022655010e-01  -4.486360400915e-02  -7.193051576614e-01  -2.565140724182e-01   0.000000000000e+00  -9.928647279739e-01 
 -6.440010666847e-01   2.087430059910e-01   3.619453907013e-01  -4.044447541237e-01   8.213262557983e-01   1.310982704163e-01  -4.760211110115e-01   1.130213618279e+00  -3.162748366594e-02 
 -4.760211110115e-01   1.130213618279e+00  -3.162748366594e-02   0.000000000000e+00   1.211571395397e-01  -4.887250661850e-01   0.000000000000e+00   1.211571395397e-01  -4.887250661850e-01 
  2.365652173758e-01  -2.413650229573e-02  -1.297975629568e-01   4.595596790314e-01  -3.633670136333e-02  -3.130404353142e-01   5.371025204659e-01   3.613336384296e-02  -8.457783460617e-01 
 -2.492147833109e-01   8.119317144156e-02  -1.042684078217e+00  -7.416678071022e-01   6.820999085903e-02   3.877688571811e-02  -4.630966484547e-01   2.463566511869e-01   1.812359839678e-01 
 -1.799810230732e-01   3.914267122746e-01   3.288193047047e-02  -1.799810230732e-01   3.914267122746e-01   3.288193047047e-02   0.000000000000e+00   4.459933564067e-02  -4.787005484104e-01 
  0.000000000000e+00   4.459933564067e-02  -4.787005484104e-01   1.446147114038e-01   3.129883110523e-02  -6.631637811661e-01   2.687222361565e-01   2.815901767462e-03  -5.709192156792e-01 
  4.408881664276e-01   1.142202019691e-01  -5.346472859383e-01   2.613083720207e-01   1.841485500336e-01  -2.097703218460e-01   6.315650418401e-03   1.277100294828e-01   5.055098235607e-02 
  2.263421714306e-01   1.610844731331e-01  -3.118408471346e-02   1.139275789261e+00   1.695156097412e-01   1.503077335656e-02   1.139275789261e+00   1.695156097412e-01   1.503077335656e-02 
  0.000000000000e+00   1.774405688047e-01  -4.039912223816e-01   0.000000000000e+00   1.774405688047e-01  -4.039912223816e-01   1.544797569513e-01   9.568338841200e-02  -3.199834823608e-01 
  2.436394691467e-01  -1.182476524264e-02  -8.701307177544e-01   2.586984634399e-01  -4.014159785584e-04  -7.561740279198e-01   1.117800399661e-01  -8.284704387188e-02  -1.376658976078e-01 
 -3.145671188831e-01   3.461181372404e-02   1.910670399666e-01   1.558409631252e-01  -9.512978605926e-03  -3.805305957794e-01   6.798482537270e-01   1.195383891463e-01  -7.594662904739e-01 
  6.798482537270e-01   1.195383891463e-01  -7.594662904739e-01   0.000000000000e+00   8.913449943066e-02  -3.992446064949e-01   0.000000000000e+00   8.913449943066e-02  -3.992446064949e-01 
  2.728817164898e-01   7.261115312576e-02  -5.285711884499e-01   2.634956538677e-01   6.384492665529e-02  -8.814966678619e-01   4.424035251141e-01   7.322391867638e-02  -1.204206824303e+00 
 -4.887431859970e-01  -2.930807694793e-02  -1.898571729660e+00  -6.487722992897e-01  -1.330356393009e-02  -1.302833557129e+00  -4.081598222256e-01  -3.802919015288e-02  -6.404311656952e-01 
 -8.510984182358e-01   0.000000000000e+00  -7.034381628036e-01  -8.510984182358e-01   0.000000000000e+00  -7.034381628036e-01   0.000000000000e+00   0.000000000000e+00  -3.809061646461e-01 
  0.000000000000e+00   0.000000000000e+00  -3.809061646461e-01   7.374031841755e-02   0.000000000000e+00  -5.628200173378e-01   1.701039522886e-01   1.406856533140e-02  -7.145594954491e-01 
  3.728170990944e-01   0.000000000000e+00  -6.539409160614e-01   9.444390982389e-02   0.000000000000e+00  -4.824496269226e+00  -4.154197871685e-01   0.000000000000e+00  -5.152011871338e+00 
 -1.559088826180e-01  -2.349196234718e-03  -9.568812847137e-01  -2.408086955547e-01  -1.284324534936e-04  -3.964059948921e-01  -2.408086955547e-01  -1.284324534936e-04  -3.964059948921e-01 
  0.000000000000e+00   0.000000000000e+00  -3.809061646461e-01   0.000000000000e+00   0.000000000000e+00  -3.809061646461e-01   7.374031841755e-02   0.000000000000e+00  -5.628200173378e-01 
  1.701039522886e-01   1.406856533140e-02  -7.145594954491e-01   3.728170990944e-01   0.000000000000e+00  -6.539409160614e-01   9.444390982389e-02   0.000000000000e+00  -4.824496269226e+00 
 -4.154197871685e-01   0.000000000000e+00  -5.152011871338e+00  -1.559088826180e-01  -2.349196234718e-03  -9.568812847137e-01  -2.408086955547e-01  -1.284324534936e-04  -3.964059948921e-01 
 -2.408086955547e-01  -1.284324534936e-04  -3.964059948921e-01   0.000000000000e+00   4.309846088290e-02  -4.818768203259e-01   0.000000000000e+00   4.309846088290e-02  -4.818768203259e-01 
  1.589699685574e-01   3.225317597389e-02  -7.755812257528e-02   6.500294208527e-01  -3.073279280216e-03  -9.051626324654e-01   0.000000000000e+00  -1.391743496060e-02  -1.000000014901e-01 
  0.000000000000e+00   3.431797921658e-01  -1.000000014901e-01   0.000000000000e+00   0.000000000000e+00  -1.000000014901e-01  -8.887173607945e-03   4.230215549469e-01  -5.130422711372e-01 
 -2.487000450492e-02   4.761094227433e-02  -4.996497035027e-01  -2.487000450492e-02   4.761094227433e-02  -4.996497035027e-01   0.000000000000e+00   4.309846088290e-02  -4.818768203259e-01 
  0.000000000000e+00   4.309846088290e-02  -4.818768203259e-01   1.589699685574e-01   3.225317597389e-02  -7.755812257528e-02   6.500294208527e-01  -3.073279280216e-03  -9.051626324654e-01 
  0.000000000000e+00  -1.391743496060e-02  -1.000000014901e-01   0.000000000000e+00   3.431797921658e-01  -1.000000014901e-01   0.000000000000e+00   0.000000000000e+00  -1.000000014901e-01 
 -8.887173607945e-03   4.230215549469e-01  -5.130422711372e-01  -2.487000450492e-02   4.761094227433e-02  -4.996497035027e-01  -2.487000450492e-02   4.761094227433e-02  -4.996497035027e-01 
  0.000000000000e+00  -1.333925779909e-02  -7.935087084770e-01   0.000000000000e+00  -1.333925779909e-02  -7.935087084770e-01   1.688566058874e-01  -4.262084886432e-02  -2.997520267963e-01 
  1.609911620617e-01  -4.655794054270e-02  -3.375695943832e-01   5.891532078385e-02  -5.410494655371e-02  -3.269372880459e-01  -1.284636836499e-02   5.274612903595e-01  -6.831844449043e-01 
 -2.343094944954e-01   6.152738332748e-01  -4.850440919399e-01   0.000000000000e+00   4.925312995911e-01  -1.000000014901e-01   0.000000000000e+00   4.761094227433e-02  -5.253959298134e-01 
  0.000000000000e+00   4.761094227433e-02  -5.253959298134e-01   0.000000000000e+00   1.331828683615e-01  -3.544200956821e-01   0.000000000000e+00   1.331828683615e-01  -3.544200956821e-01 
  4.524199292064e-02   8.065154403448e-02  -6.843247264624e-02   1.512907445431e-01   7.756842765957e-03  -1.978909075260e-01   3.486385345459e-01  -6.731994915754e-03   1.505112051964e-01 
 -5.889362096786e-02   4.385493695736e-02  -9.928647279739e-01  -3.759569525719e-01   2.538411319256e-01  -2.398364841938e-01  -3.935979902744e-01   4.577558040619e-01   3.820484876633e-02 
 -4.111065566540e-01   0.000000000000e+00  -1.000000014901e-01  -4.111065566540e-01   0.000000000000e+00  -1.000000014901e-01   0.000000000000e+00   5.932629108429e-02  -3.297177255154e-01 
  0.000000000000e+00   5.932629108429e-02  -3.297177255154e-01   1.301718056202e-01  -1.619633138180e-01   6.192498281598e-02   3.646000027657e-01  -1.029076501727e-01  -3.406386375427e-01 
  5.820311307907e-01   7.902296259999e-03   9.046667814255e-01   4.074001684785e-02   1.055018007755e-01   8.104515075684e-01  -2.674246430397e-01   9.992775321007e-02  -9.928647279739e-01 
 -3.712832331657e-01   1.534533351660e-01   5.769867449999e-02  -1.207132264972e-01   0.000000000000e+00  -2.003169655800e-01  -1.207132264972e-01   0.000000000000e+00  -2.003169655800e-01 
  0.000000000000e+00  -2.995903789997e-02  -7.368568778038e-01   0.000000000000e+00  -2.995903789997e-02  -7.368568778038e-01   1.536585390568e-01   1.574102789164e-01  -4.566780924797e-01 
  6.257805824280e-01   4.916926473379e-02  -7.485655546188e-01   6.546357870102e-01   9.866188466549e-02   1.044138193130e+00   3.006846308708e-01   1.422951668501e-01   6.712501049042e-01 
  1.404065042734e-01   1.403383761644e-01  -4.208950102329e-01   7.998765259981e-02   8.872704952955e-02  -1.000000014901e-01   0.000000000000e+00   0.000000000000e+00  -2.214151471853e-01 