# vtk DataFile Version 2.0
Written using VisIt writer
ASCII
DATASET RECTILINEAR_GRID
DIMENSIONS 10 10 10
X_COORDINATES 10 float
  0.000000000000e+00   5.000000000000e-01   1.000000000000e+00   1.500000000000e+00   2.000000000000e+00   2.500000000000e+00   3.000000000000e+00   3.500000000000e+00   4.000000000000e+00 
  4.500000000000e+00 
Y_COORDINATES 10 float
  0.000000000000e+00   5.000000000000e-01   1.000000000000e+00   1.500000000000e+00   2.000000000000e+00   2.500000000000e+00   3.000000000000e+00   3.500000000000e+00   4.000000000000e+00 
  4.500000000000e+00 
Z_COORDINATES 10 float
  0.000000000000e+00   5.000000000000e-01   1.000000000000e+00   1.500000000000e+00   2.000000000000e+00   2.500000000000e+00   3.000000000000e+00   3.500000000000e+00   4.000000000000e+00 
  4.500000000000e+00 
CELL_DATA 729
POINT_DATA 1000
VECTORS velocity float
  0.000000000000e+00  -1.283116340637e-01  -2.395271658897e-01   3.251200000000e+04   0.000000000000e+00   0.000000000000e+00   0.000000000000e+00   0.000000000000e+00   0.000000000000e+00 
  9.812734276056e-02  -8.842680603266e-02  -1.759339570999e-01   0.000000000000e+00   0.000000000000e+00   0.000000000000e+00   0.000000000000e+00   1.431655808000e+09   1.070945600000e+09 
 -6.376818567514e-02  -8.626248687506e-02  -1.633159220219e-01   1.071994176000e+09   0.000000000000e+00   0.000000000000e+00   0.000000000000e+00   0.000000000000e+00   0.000000000000e+00 
  8.172785490751e-02  -1.920108944178e-01  -1.829755157232e-01   0.000000000000e+00  -1.283116340637e-01  -2.395271658897e-01   1.070945600000e+09   0.000000000000e+00   0.000000000000e+00 
  2.687212824821e-02  -1.211356595159e-01  -2.184475213289e-01   9.812734276056e-02  -8.842680603266e-02  -1.759339570999e-01   1.431655808000e+09   1.070945600000e+09   0.000000000000e+00 
  2.662847749889e-02  -6.115023419261e-02  -1.402379572392e-01  -6.376818567514e-02  -8.626248687506e-02  -1.633159220219e-01   0.000000000000e+00   0.000000000000e+00   1.071644672000e+09 
  8.172785490751e-02  -1.920108944178e-01  -1.829755157232e-01   8.172785490751e-02  -1.920108944178e-01  -1.829755157232e-01   0.000000000000e+00   3.260784223676e-02  -1.974532306194e-01 
  0.000000000000e+00   3.260784223676e-02  -1.974532306194e-01  -7.394769694656e-03  -1.462660878897e-01  -2.169763594866e-01   1.114480867982e-01  -2.691883742809e-01  -2.015926241875e-01 
  1.229147613049e-01  -1.532592624426e-01  -1.978173553944e-01   4.224120080471e-02  -3.919404372573e-02  -1.453071981668e-01   3.247780352831e-02  -1.914610341191e-02  -1.411114484072e-01 
  3.088482096791e-02  -1.423895917833e-02  -1.346927583218e-01   1.209823191166e-01   4.221583902836e-02  -1.405323892832e-01   1.209823191166e-01   4.221583902836e-02  -1.405323892832e-01 
  0.000000000000e+00   1.487771328539e-02  -1.942135542631e-01   0.000000000000e+00   1.487771328539e-02  -1.942135542631e-01   1.070871800184e-01   5.072340834886e-03  -1.749707609415e-01 
  6.224694848061e-02   1.524214353412e-02  -1.470879763365e-01   4.807168617845e-02  -8.283586800098e-02  -1.582192182541e-01   5.163658410311e-02  -1.493124663830e-01  -1.591126024723e-01 
  5.915702879429e-02  -1.063387319446e-01  -1.889462620020e-01   1.547753959894e-01  -8.473242819309e-02  -1.399491280317e-01   1.123135015368e-01  -4.982842132449e-02  -1.411379128695e-01 
  1.123135015368e-01  -4.982842132449e-02  -1.411379128695e-01   0.000000000000e+00  -3.751207550522e-04  -2.151804864407e-01   0.000000000000e+00  -3.751207550522e-04  -2.151804864407e-01 
 -6.369329988956e-02  -5.806528776884e-02  -2.330758720636e-01   2.324296161532e-02  -1.014926191419e-02  -1.777784526348e-01   3.636185824871e-02  -7.052370905876e-02  -1.586977839470e-01 
 -3.064097545575e-04  -6.412253528833e-02  -1.504507511854e-01   2.258720993996e-02  -1.456251926720e-02  -1.604705899954e-01   1.069339513779e-01  -4.571854695678e-02  -1.578820496798e-01 
  3.781314939260e-02  -1.512075811625e-01  -1.940975338221e-01   3.781314939260e-02  -1.512075811625e-01  -1.940975338221e-01   0.000000000000e+00  -1.944029005244e-03  -1.923359334469e-01 
  0.000000000000e+00  -1.944029005244e-03  -1.923359334469e-01  -1.745445467532e-02  -2.826793119311e-02  -2.011329531670e-01   1.108868420124e-01   1.380421872454e-05  -2.053394466639e-01 
  1.122790351510e-01  -3.399944305420e-02  -2.112296819687e-01   1.196939572692e-01   5.071872472763e-02  -1.480969041586e-01   1.133291423321e-02  -2.937993407249e-02  -1.448556184769e-01 
 -3.651212900877e-02  -4.776231944561e-03  -1.440369486809e-01  -6.329829245806e-02  -4.417081829160e-03  -1.703512072563e-01  -6.329829245806e-02  -4.417081829160e-03  -1.703512072563e-01 
  0.000000000000e+00  -1.661959849298e-02  -2.072689682245e-01   0.000000000000e+00  -1.661959849298e-02  -2.072689682245e-01   2.687869593501e-02  -6.131169199944e-02  -1.858043372631e-01 
  6.416889280081e-02   5.332389101386e-02  -1.693066805601e-01   8.319454640150e-02   4.629522562027e-02  -1.633458137512e-01   1.756167709827e-01   6.716955453157e-02  -1.606325656176e-01 
  8.768583089113e-02  -2.367127873003e-02  -1.812782287598e-01   7.901830971241e-02  -1.902265846729e-02  -1.463499516249e-01   8.760454505682e-02   6.507183611393e-02  -1.505440920591e-01 
  8.760454505682e-02   6.507183611393e-02  -1.505440920591e-01   0.000000000000e+00  -2.810898609459e-02  -2.309399396181e-01   0.000000000000e+00  -2.810898609459e-02  -2.309399396181e-01 
  1.293113175780e-02  -7.024927437305e-02  -2.322601079941e-01   1.210439428687e-01   2.726534195244e-02  -1.724290996790e-01   5.940162390471e-02   1.871897466481e-02  -1.638211309910e-01 
  1.633324027061e-01   4.052348434925e-03  -1.383078396320e-01   4.282024875283e-02   3.847564756870e-02  -1.514807492495e-01   8.718595653772e-02   1.317883282900e-02  -1.597026139498e-01 
  2.020050585270e-01  -7.531165331602e-02  -1.955808997154e-01   2.020050585270e-01  -7.531165331602e-02  -1.955808997154e-01   0.000000000000e+00   0.000000000000e+00  -1.994628906250e-01 
  0.000000000000e+00   0.000000000000e+00  -1.994628906250e-01  -3.219102276489e-03   0.000000000000e+00  -1.948150843382e-01   4.734444245696e-02   0.000000000000e+00  -1.739989966154e-01 
 -1.406494677067e-01   0.000000000000e+00  -2.248504012823e-01   2.007391154766e-01   0.000000000000e+00  -1.331517547369e-01   1.635188013315e-01   0.000000000000e+00  -1.246469765902e-01 
  1.313402652740e-01   0.000000000000e+00  -1.274502426386e-01   3.433081507683e-01   0.000000000000e+00  -1.242549493909e-01   3.433081507683e-01   0.000000000000e+00  -1.242549493909e-01 
  0.000000000000e+00   0.000000000000e+00  -1.994628906250e-01   0.000000000000e+00   0.000000000000e+00  -1.994628906250e-01  -3.219102276489e-03   0.000000000000e+00  -1.948150843382e-01 
  4.734444245696e-02   0.000000000000e+00  -1.739989966154e-01  -1.406494677067e-01   0.000000000000e+00  -2.248504012823e-01   2.007391154766e-01   0.000000000000e+00  -1.331517547369e-01 
  1.635188013315e-01   0.000000000000e+00  -1.246469765902e-01   1.313402652740e-01   0.000000000000e+00  -1.274502426386e-01   3.433081507683e-01   0.000000000000e+00  -1.242549493909e-01 
  3.433081507683e-01   0.000000000000e+00  -1.242549493909e-01   0.000000000000e+00  -1.283116340637e-01  -2.395271658897e-01   0.000000000000e+00  -1.283116340637e-01  -2.395271658897e-01 
  2.687212824821e-02  -1.211356595159e-01  -2.184475213289e-01   9.812734276056e-02  -8.842680603266e-02  -1.759339570999e-01   1.025652512908e-01  -6.464529037476e-02  -1.557354480028e-01 
  2.662847749889e-02  -6.115023419261e-02  -1.402379572392e-01  -6.376818567514e-02  -8.626248687506e-02  -1.633159220219e-01   8.916731923819e-03  -1.155456379056e-01  -1.667022109032e-01 
  8.172785490751e-02  -1.920108944178e-01  -1.829755157232e-01   8.172785490751e-02  -1.920108944178e-01  -1.829755157232e-01   0.000000000000e+00  -1.283116340637e-01  -2.395271658897e-01 
  0.000000000000e+00  -1.283116340637e-01  -2.395271658897e-01   2.687212824821e-02  -1.211356595159e-01  -2.184475213289e-01   9.812734276056e-02  -8.842680603266e-02  -1.759339570999e-01 
  1.025652512908e-01  -6.464529037476e-02  -1.557354480028e-01   2.662847749889e-02  -6.115023419261e-02  -1.402379572392e-01  -6.376818567514e-02  -8.626248687506e-02  -1.633159220219e-01 
  8.916731923819e-03  -1.155456379056e-01  -1.667022109032e-01   8.172785490751e-02  -1.920108944178e-01  -1.829755157232e-01   8.172785490751e-02  -1.920108944178e-01  -1.829755157232e-01 
  0.000000000000e+00   3.260784223676e-02  -1.974532306194e-01   0.000000000000e+00   3.260784223676e-02  -1.974532306194e-01  -7.394769694656e-03  -1.462660878897e-01  -2.169763594866e-01 
  1.114480867982e-01  -2.691883742809e-01  -2.015926241875e-01   1.229147613049e-01  -1.532592624426e-01  -1.978173553944e-01   4.224120080471e-02  -3.919404372573e-02  -1.453071981668e-01 
  3.247780352831e-02  -1.914610341191e-02  -1.411114484072e-01   3.088482096791e-02  -1.423895917833e-02  -1.346927583218e-01   1.209823191166e-01   4.221583902836e-02  -1.405323892832e-01 
  1.209823191166e-01   4.221583902836e-02  -1.405323892832e-01   0.000000000000e+00   1.487771328539e-02  -1.942135542631e-01   0.000000000000e+00   1.487771328539e-02  -1.942135542631e-01 
  1.070871800184e-01   5.072340834886e-03  -1.749707609415e-01   6.224694848061e-02   1.524214353412e-02  -1.470879763365e-01   4.807168617845e-02  -8.283586800098e-02  -1.582192182541e-01 
  5.163658410311e-02  -1.493124663830e-01  -1.591126024723e-01   5.915702879429e-02  -1.063387319446e-01  -1.889462620020e-01   1.547753959894e-01  -8.473242819309e-02  -1.399491280317e-01 
  1.123135015368e-01  -4.982842132449e-02  -1.411379128695e-01   1.123135015368e-01  -4.982842132449e-02  -1.411379128695e-01   0.000000000000e+00  -3.751207550522e-04  -2.151804864407e-01 
  0.000000000000e+00  -3.751207550522e-04  -2.151804864407e-01  -6.369329988956e-02  -5.806528776884e-02  -2.330758720636e-01   2.324296161532e-02  -1.014926191419e-02  -1.777784526348e-01 
  3.636185824871e-02  -7.052370905876e-02  -1.586977839470e-01  -3.064097545575e-04  -6.412253528833e-02  -1.504507511854e-01   2.258720993996e-02  -1.456251926720e-02  -1.604705899954e-01 
  1.069339513779e-01  -4.571854695678e-02  -1.578820496798e-01   3.781314939260e-02  -1.512075811625e-01  -1.940975338221e-01   3.781314939260e-02  -1.512075811625e-01  -1.940975338221e-01 
  0.000000000000e+00  -1.944029005244e-03  -1.923359334469e-01   0.000000000000e+00  -1.944029005244e-03  -1.923359334469e-01  -1.745445467532e-02  -2.826793119311e-02  -2.011329531670e-01 
  1.108868420124e-01   1.380421872454e-05  -2.053394466639e-01   1.122790351510e-01  -3.399944305420e-02  -2.112296819687e-01   1.196939572692e-01   5.071872472763e-02  -1.480969041586e-01 
  1.133291423321e-02  -2.937993407249e-02  -1.448556184769e-01  -3.651212900877e-02  -4.776231944561e-03  -1.440369486809e-01  -6.329829245806e-02  -4.417081829160e-03  -1.703512072563e-01 
 -6.329829245806e-02  -4.417081829160e-03  -1.703512072563e-01   0.000000000000e+00  -1.661959849298e-02  -2.072689682245e-01   0.000000000000e+00  -1.661959849298e-02  -2.072689682245e-01 
  2.687869593501e-02  -6.131169199944e-02  -1.858043372631e-01   6.416889280081e-02   5.332389101386e-02  -1.693066805601e-01   8.319454640150e-02   4.629522562027e-02  -1.633458137512e-01 
  1.756167709827e-01   6.716955453157e-02  -1.606325656176e-01   8.768583089113e-02  -2.367127873003e-02  -1.812782287598e-01   7.901830971241e-02  -1.902265846729e-02  -1.463499516249e-01 
  8.760454505682e-02   6.507183611393e-02  -1.505440920591e-01   8.760454505682e-02   6.507183611393e-02  -1.505440920591e-01   0.000000000000e+00  -2.810898609459e-02  -2.309399396181e-01 
  0.000000000000e+00  -2.810898609459e-02  -2.309399396181e-01   1.293113175780e-02  -7.024927437305e-02  -2.322601079941e-01   1.210439428687e-01   2.726534195244e-02  -1.724290996790e-01 
  5.940162390471e-02   1.871897466481e-02  -1.638211309910e-01   1.633324027061e-01   4.052348434925e-03  -1.383078396320e-01   4.282024875283e-02   3.847564756870e-02  -1.514807492495e-01 
  8.718595653772e-02   1.317883282900e-02  -1.597026139498e-01   2.020050585270e-01  -7.531165331602e-02  -1.955808997154e-01   2.020050585270e-01  -7.531165331602e-02  -1.955808997154e-01 
  0.000000000000e+00   0.000000000000e+00  -1.994628906250e-01   0.000000000000e+00   0.000000000000e+00  -1.994628906250e-01  -3.219102276489e-03   0.000000000000e+00  -1.948150843382e-01 
  4.734444245696e-02   0.000000000000e+00  -1.739989966154e-01  -1.406494677067e-01   0.000000000000e+00  -2.248504012823e-01   2.007391154766e-01   0.000000000000e+00  -1.331517547369e-01 
  1.635188013315e-01   0.000000000000e+00  -1.246469765902e-01   1.313402652740e-01   0.000000000000e+00  -1.274502426386e-01   3.433081507683e-01   0.000000000000e+00  -1.242549493909e-01 
  3.433081507683e-01   0.000000000000e+00  -1.242549493909e-01   0.000000000000e+00   0.000000000000e+00  -1.994628906250e-01   0.000000000000e+00   0.000000000000e+00  -1.994628906250e-01 
 -3.219102276489e-03   0.000000000000e+00  -1.948150843382e-01   4.734444245696e-02   0.000000000000e+00  -1.739989966154e-01  -1.406494677067e-01   0.000000000000e+00  -2.248504012823e-01 
  2.007391154766e-01   0.000000000000e+00  -1.331517547369e-01   1.635188013315e-01   0.000000000000e+00  -1.246469765902e-01   1.313402652740e-01   0.000000000000e+00  -1.274502426386e-01 
  3.433081507683e-01   0.000000000000e+00  -1.242549493909e-01   3.433081507683e-01   0.000000000000e+00  -1.242549493909e-01   0.000000000000e+00  -1.550215631723e-01  -6.466645002365e-01 
  0.000000000000e+00  -1.550215631723e-01  -6.466645002365e-01   3.535826802254e-01  -1.286481022835e-01  -9.744629859924e-01   5.776731967926e-01  -8.525019139051e-02  -9.012257456779e-01 
  6.703925132751e-01   4.863864928484e-02  -8.894531130791e-01   1.010234236717e+00   2.897060662508e-02  -3.894124925137e-01   0.000000000000e+00  -2.033336274326e-02  -3.668408095837e-02 
 -8.707618117332e-01  -4.240414202213e-01  -3.329778835177e-02  -8.361803293228e-01  -6.139642372727e-02  -1.702448911965e-02  -8.361803293228e-01  -6.139642372727e-02  -1.702448911965e-02 
  0.000000000000e+00  -1.550215631723e-01  -6.466645002365e-01   0.000000000000e+00  -1.550215631723e-01  -6.466645002365e-01   3.535826802254e-01  -1.286481022835e-01  -9.744629859924e-01 
  5.776731967926e-01  -8.525019139051e-02  -9.012257456779e-01   6.703925132751e-01   4.863864928484e-02  -8.894531130791e-01   1.010234236717e+00   2.897060662508e-02  -3.894124925137e-01 
  0.000000000000e+00  -2.033336274326e-02  -3.668408095837e-02  -8.707618117332e-01  -4.240414202213e-01  -3.329778835177e-02  -8.361803293228e-01  -6.139642372727e-02  -1.702448911965e-02 
 -8.361803293228e-01  -6.139642372727e-02  -1.702448911965e-02   0.000000000000e+00   1.217172890902e-01  -1.201946377754e+00   0.000000000000e+00   1.217172890902e-01  -1.201946377754e+00 
  2.895011603832e-01   2.471833303571e-02  -7.365490198135e-01   2.315499037504e-01   1.561457663774e-02  -7.142037153244e-01   3.138597309589e-01   1.310765743256e-01  -3.894215524197e-01 
  4.955368340015e-01   2.743517793715e-02  -2.203506082296e-01   4.446411132812e-02  -1.270190812647e-02  -5.888855084777e-02   4.754505679011e-02  -3.762700557709e-01  -6.530724465847e-02 
  1.163815185428e-01   4.204986616969e-02  -5.946761742234e-02   1.163815185428e-01   4.204986616969e-02  -5.946761742234e-02   0.000000000000e+00   5.467542633414e-02  -9.617092609406e-01 
  0.000000000000e+00   5.467542633414e-02  -9.617092609406e-01   2.553363442421e-01   2.892216667533e-02  -7.913693189621e-01   3.099453449249e-01   1.924161463976e-01  -6.038879156113e-01 
  1.121793508530e+00  -4.071468412876e-01  -5.010506510735e-01   1.370266437531e+00  -2.076816856861e-01  -5.588008165359e-01  -2.435110136867e-02  -1.289364397526e-01  -6.766726374626e-01 
  1.437695324421e-01  -9.048026055098e-02  -3.456626236439e-01   4.073154926300e-02  -5.434524267912e-02  -4.252846240997e-01   4.073154926300e-02  -5.434524267912e-02  -4.252846240997e-01 
  0.000000000000e+00   3.488748520613e-02  -1.203981280327e+00   0.000000000000e+00   3.488748520613e-02  -1.203981280327e+00   3.292382359505e-01   1.890120953321e-01  -5.907838344574e-01 
  4.395332634449e-01  -2.156900614500e-02  -6.736109852791e-01   4.732197225094e-01  -2.756044566631e-01  -6.192327141762e-01  -7.274367213249e-01  -6.173346191645e-02  -3.480494022369e-01 
 -3.788823485374e-01  -1.718386411667e-01  -6.480418443680e-01   1.959735304117e-01  -9.958829730749e-02  -5.527534484863e-01  -1.995592266321e-01  -1.532595902681e-01  -7.383549809456e-01 
 -1.995592266321e-01  -1.532595902681e-01  -7.383549809456e-01   0.000000000000e+00   1.080710962415e-01  -9.590402841568e-01   0.000000000000e+00   1.080710962415e-01  -9.590402841568e-01 
  1.547146141529e-01   8.192931115627e-02  -8.623179793358e-01   2.898494601250e-01  -1.544057279825e-01  -9.245991110802e-01   5.055409073830e-01   1.186104044318e-01  -6.705212593079e-01 
  9.919375926256e-02   1.049456074834e-01  -3.619583845139e-01  -1.837747246027e-01  -6.894106417894e-02  -5.354279875755e-01   5.534005165100e-01  -1.338936686516e-01  -5.896800160408e-01 
 -5.137974619865e-01  -1.773802191019e-01  -7.835439443588e-01  -5.137974619865e-01  -1.773802191019e-01  -7.835439443588e-01   0.000000000000e+00   4.575319215655e-02  -9.457044601440e-01 
  0.000000000000e+00   4.575319215655e-02  -9.457044601440e-01   2.374231666327e-01   1.610690206289e-01  -6.902138590813e-01   3.912231922150e-01   1.226517185569e-01  -8.277013897896e-01 
  6.187207698822e-01   2.903059720993e-01  -7.604704499245e-01   3.796480298042e-01   7.853803783655e-02  -5.473151803017e-01   8.229593932629e-02  -2.555568143725e-02   2.024702876806e-01 
  1.820968091488e-01   2.081486862153e-03   1.419995725155e-01  -1.025367826223e-01   7.970800250769e-02  -4.612801671028e-01  -1.025367826223e-01   7.970800250769e-02  -4.612801671028e-01 
  0.000000000000e+00  -3.873687982559e-02  -7.982260584831e-01   0.000000000000e+00  -3.873687982559e-02  -7.982260584831e-01   3.136270120740e-02  -1.350899934769e-01  -7.460517883301e-01 
  2.566019296646e-01   2.278684079647e-01  -1.087775468826e+00   3.919559717178e-01  -1.000448539853e-01  -8.261010050774e-01   1.722454130650e-01  -3.199137374759e-02  -8.496661186218e-01 
  0.000000000000e+00   3.437618166208e-02  -5.779422521591e-01   1.033028513193e-01   3.645522519946e-02  -3.223580718040e-01   8.262444287539e-02   1.102967336774e-01  -2.872807383537e-01 
  8.262444287539e-02   1.102967336774e-01  -2.872807383537e-01   0.000000000000e+00   0.000000000000e+00  -1.073611974716e+00   0.000000000000e+00   0.000000000000e+00  -1.073611974716e+00 
  4.004420936108e-01   0.000000000000e+00  -5.646773576736e-01   3.038227558136e-01   0.000000000000e+00  -9.952099323273e-01  -1.649959802628e+00   0.000000000000e+00  -8.171200156212e-01 
 -1.869612216949e+00   0.000000000000e+00  -9.323104619980e-01  -3.166038393974e-01   9.159108594758e-05  -7.535302639008e-02   1.172941476107e-01   2.505837706849e-03  -7.254975289106e-02 
  3.049744367599e-01   0.000000000000e+00  -7.574505358934e-02   3.049744367599e-01   0.000000000000e+00  -7.574505358934e-02   0.000000000000e+00   0.000000000000e+00  -1.073611974716e+00 
  0.000000000000e+00   0.000000000000e+00  -1.073611974716e+00   4.004420936108e-01   0.000000000000e+00  -5.646773576736e-01   3.038227558136e-01   0.000000000000e+00  -9.952099323273e-01 
 -1.649959802628e+00   0.000000000000e+00  -8.171200156212e-01  -1.869612216949e+00   0.000000000000e+00  -9.323104619980e-01  -3.166038393974e-01   9.159108594758e-05  -7.535302639008e-02 
  1.172941476107e-01   2.505837706849e-03  -7.254975289106e-02   3.049744367599e-01   0.000000000000e+00  -7.574505358934e-02   3.049744367599e-01   0.000000000000e+00  -7.574505358934e-02 
  0.000000000000e+00   2.346552349627e-02  -1.630127429962e-01   0.000000000000e+00   2.346552349627e-02  -1.630127429962e-01   2.092040330172e-01  -1.674432866275e-02   2.008611857891e-01 
  2.301090508699e-01  -1.134292222559e-02  -2.719888985157e-01   6.146439313889e-01   7.307932525873e-02  -7.527760267258e-01   0.000000000000e+00  -7.940915226936e-02  -2.656578123569e-01 
  0.000000000000e+00  -3.938819169998e-01  -1.000000014901e-01  -9.371696710587e-01  -4.879581034184e-01   1.293035000563e-01  -8.389832377434e-01  -2.213430404663e-01   1.720115095377e-01 
 -8.389832377434e-01  -2.213430404663e-01   1.720115095377e-01   0.000000000000e+00   2.346552349627e-02  -1.630127429962e-01   0.000000000000e+00   2.346552349627e-02  -1.630127429962e-01 
  2.092040330172e-01  -1.674432866275e-02   2.008611857891e-01   2.301090508699e-01  -1.134292222559e-02  -2.719888985157e-01   6.146439313889e-01   7.307932525873e-02  -7.527760267258e-01 
  0.000000000000e+00  -7.940915226936e-02  -2.656578123569e-01   0.000000000000e+00  -3.938819169998e-01  -1.000000014901e-01  -9.371696710587e-01  -4.879581034184e-01   1.293035000563e-01 
 -8.389832377434e-01  -2.213430404663e-01   1.720115095377e-01  -8.389832377434e-01  -2.213430404663e-01   1.720115095377e-01   0.000000000000e+00   2.067093253136e-01  -2.603856027126e-01 
  0.000000000000e+00   2.067093253136e-01  -2.603856027126e-01   1.954012811184e-01   8.950292132795e-03  -1.814552545547e-01   1.200984790921e-01  -1.695445738733e-02  -1.695010811090e-01 
  2.664060592651e-01   8.480193465948e-02  -3.380812406540e-01  -1.429564952850e-01  -2.287559956312e-01  -3.393304646015e-01  -6.053305864334e-01  -3.255785405636e-01  -9.158308058977e-02 
 -3.371333479881e-01  -4.025420844555e-01   1.720115095377e-01  -5.497134923935e-01  -2.026005685329e-01   7.212161272764e-02  -5.497134923935e-01  -2.026005685329e-01   7.212161272764e-02 
  0.000000000000e+00  -1.153273358941e-01  -2.544704973698e-01   0.000000000000e+00  -1.153273358941e-01  -2.544704973698e-01   1.301332712173e-01  -1.115368977189e-01  -4.885122776031e-01 
  2.138986438513e-01  -1.291712075472e-01  -7.496985197067e-01   3.652599751949e-01  -2.369770258665e-01  -4.553210735321e-01  -4.267311990261e-01  -1.939919888973e-01  -5.048859715462e-01 
 -8.145375251770e-01  -3.652131557465e-02  -2.979876101017e-01  -2.472296506166e-01   0.000000000000e+00  -3.291300833225e-01  -1.063768714666e-01  -8.146677166224e-02  -4.610094428062e-01 
 -1.063768714666e-01  -8.146677166224e-02  -4.610094428062e-01   0.000000000000e+00   8.990180678666e-03  -4.871335029602e-01   0.000000000000e+00   8.990180678666e-03  -4.871335029602e-01 
  1.827068030834e-01  -6.778620649129e-03  -2.343816459179e-01   1.851019561291e-01  -2.588553726673e-02  -3.545419275761e-01  -3.134686350822e-01  -1.746130287647e-01  -6.025275588036e-01 
 -6.434792280197e-01  -2.983243577182e-02  -5.161072611809e-01  -6.347020864487e-01   3.030153922737e-02  -1.574650257826e-01  -3.666870892048e-01  -2.490076981485e-02  -3.335237503052e-01 
 -2.372310161591e-01  -1.041302904487e-01  -6.296358704567e-01  -2.372310161591e-01  -1.041302904487e-01  -6.296358704567e-01   0.000000000000e+00   1.385771390051e-02  -3.282950222492e-01 
  0.000000000000e+00   1.385771390051e-02  -3.282950222492e-01   2.395490109921e-01   1.566155999899e-01  -3.006091415882e-01  -4.710972309113e-02   2.123321145773e-01  -2.274204343557e-01 
 -2.307914495468e-01  -6.020548939705e-02  -9.740057587624e-02  -6.383131742477e-01   2.869504317641e-02  -2.694132030010e-01  -5.513553619385e-01   1.004429385066e-01  -3.289930522442e-01 
  1.315841972828e-01  -3.403439000249e-02  -5.463088750839e-01   0.000000000000e+00  -8.641764521599e-02  -6.525139808655e-01   0.000000000000e+00  -8.641764521599e-02  -6.525139808655e-01 
  0.000000000000e+00   1.986139826477e-02  -3.109377622604e-01   0.000000000000e+00   1.986139826477e-02  -3.109377622604e-01   1.815397441387e-01   6.812399625778e-02  -3.536382317543e-01 
  3.662927150726e-01   1.427698135376e-01  -1.395762413740e-01   5.004106760025e-01   1.553379446268e-01  -6.418386101723e-01   3.944272398949e-01   1.290530711412e-01  -5.550931096077e-01 
  3.871985524893e-02  -1.223332732916e-01  -1.129750832915e-01   1.376843601465e-01   3.451792290434e-04  -3.687421083450e-01  -8.354227244854e-02   6.246397644281e-02  -1.050196290016e+00 
 -8.354227244854e-02   6.246397644281e-02  -1.050196290016e+00   0.000000000000e+00  -8.399222046137e-03  -5.360375046730e-01   0.000000000000e+00  -8.399222046137e-03  -5.360375046730e-01 
 -4.268945753574e-02  -4.357522726059e-02  -4.338455796242e-01   2.386049628258e-01  -6.466658413410e-02  -9.007765650749e-01   5.751546621323e-01   9.005885571241e-03  -1.220840930939e+00 
  3.951452374458e-01   2.752389200032e-02  -1.028366684914e+00   2.026088088751e-01  -7.839567959309e-02  -5.484452247620e-01   2.201818227768e-01  -9.672531858087e-03  -4.547296762466e-01 
  2.382988296449e-02   6.246397644281e-02  -1.098029017448e+00   2.382988296449e-02   6.246397644281e-02  -1.098029017448e+00   0.000000000000e+00   0.000000000000e+00  -6.243315339088e-01 
  0.000000000000e+00   0.000000000000e+00  -6.243315339088e-01   1.901516616344e-01   0.000000000000e+00  -3.405856490135e-01   5.952229723334e-02   0.000000000000e+00  -1.249336600304e+00 
  2.372949868441e-01   7.975808111951e-04  -1.454778194427e+00  -7.238172292709e-01   2.233420964330e-03  -1.189011693001e+00  -4.139027297497e-01  -3.963236138225e-02  -4.073827564716e-01 
  2.709343843162e-02  -1.340991072357e-02  -1.159649789333e-01   2.438513189554e-01   0.000000000000e+00  -1.000000014901e-01   2.438513189554e-01   0.000000000000e+00  -1.000000014901e-01 
  0.000000000000e+00   0.000000000000e+00  -6.243315339088e-01   0.000000000000e+00   0.000000000000e+00  -6.243315339088e-01   1.901516616344e-01   0.000000000000e+00  -3.405856490135e-01 
  5.952229723334e-02   0.000000000000e+00  -1.249336600304e+00   2.372949868441e-01   7.975808111951e-04  -1.454778194427e+00  -7.238172292709e-01   2.233420964330e-03  -1.189011693001e+00 
 -4.139027297497e-01  -3.963236138225e-02  -4.073827564716e-01   2.709343843162e-02  -1.340991072357e-02  -1.159649789333e-01   2.438513189554e-01   0.000000000000e+00  -1.000000014901e-01 
  2.438513189554e-01   0.000000000000e+00  -1.000000014901e-01   0.000000000000e+00  -2.421973273158e-02  -1.143884062767e+00   0.000000000000e+00  -2.421973273158e-02  -1.143884062767e+00 
  8.771417289972e-02  -1.495714932680e-01  -7.886173129082e-01   4.643061459064e-01  -9.231871366501e-02  -6.954075694084e-01   0.000000000000e+00  -4.660640656948e-02  -1.000000014901e-01 
  0.000000000000e+00  -9.515931457281e-02  -1.460639387369e-01   0.000000000000e+00  -2.837106883526e-01  -1.000000014901e-01   0.000000000000e+00  -2.212372571230e-01   2.147195190191e-01 
 -1.191945299506e-01  -1.650161109865e-02  -1.299452334642e-01  -1.191945299506e-01  -1.650161109865e-02  -1.299452334642e-01   0.000000000000e+00  -2.421973273158e-02  -1.143884062767e+00 
  0.000000000000e+00  -2.421973273158e-02  -1.143884062767e+00   8.771417289972e-02  -1.495714932680e-01  -7.886173129082e-01   4.643061459064e-01  -9.231871366501e-02  -6.954075694084e-01 
  0.000000000000e+00  -4.660640656948e-02  -1.000000014901e-01   0.000000000000e+00  -9.515931457281e-02  -1.460639387369e-01   0.000000000000e+00  -2.837106883526e-01  -1.000000014901e-01 
  0.000000000000e+00  -2.212372571230e-01   2.147195190191e-01  -1.191945299506e-01  -1.650161109865e-02  -1.299452334642e-01  -1.191945299506e-01  -1.650161109865e-02  -1.299452334642e-01 
  0.000000000000e+00   1.445478051901e-01  -8.082798123360e-01   0.000000000000e+00   1.445478051901e-01  -8.082798123360e-01   1.805668920279e-01   3.369681735421e-06  -5.249324440956e-01 
  3.040878176689e-01  -3.440767154098e-02  -3.800688087940e-01   1.409414559603e-01   2.990985848010e-02  -1.722569316626e-01   0.000000000000e+00   0.000000000000e+00  -1.000000014901e-01 
  0.000000000000e+00  -2.551021873951e-01   7.277096509933e-01  -4.105858802795e-01  -2.025596648455e-01   1.999719738960e-01  -1.175452619791e-01   2.155516110361e-02   1.720115095377e-01 
 -1.175452619791e-01   2.155516110361e-02   1.720115095377e-01   0.000000000000e+00  -3.084567189217e-02  -1.910540610552e-01   0.000000000000e+00  -3.084567189217e-02  -1.910540610552e-01 
  8.505190163851e-02  -6.442964822054e-02  -4.871210157871e-01   2.645050287247e-01  -8.620041608810e-02  -4.616881012917e-01   0.000000000000e+00  -1.902424395084e-01  -7.050298899412e-02 
 -1.038595438004e+00  -2.609847187996e-01   1.493221759796e+00  -1.085068345070e+00  -1.477530002594e-01   1.204549551010e+00  -9.674429893494e-01  -8.168679475784e-02   7.777019739151e-01 
 -4.182201921940e-01   0.000000000000e+00   2.086024135351e-01  -4.182201921940e-01   0.000000000000e+00   2.086024135351e-01   0.000000000000e+00   6.999567896128e-02  -5.580247640610e-01 
  0.000000000000e+00   6.999567896128e-02  -5.580247640610e-01  -7.844891399145e-03  -1.606439650059e-01  -4.533616602421e-01   9.001562744379e-02  -5.740757659078e-02  -5.621506571770e-01 
 -2.574110031128e-01  -8.917261660099e-02  -7.677251696587e-01  -5.224171280861e-01  -6.939751654863e-02   6.563398838043e-01  -9.624383449554e-01  -2.770170569420e-02   9.704802036285e-01 
 -7.664532065392e-01  -2.162269316614e-02   8.938274383545e-01  -4.617749750614e-01  -5.309874936938e-02  -9.157348424196e-02  -4.617749750614e-01  -5.309874936938e-02  -9.157348424196e-02 
  0.000000000000e+00   8.057802915573e-02  -6.062954068184e-01   0.000000000000e+00   8.057802915573e-02  -6.062954068184e-01   1.061744689941e-01   9.386663883924e-02  -8.065952658653e-01 
  1.099126636982e-01   1.161250025034e-01  -5.722311139107e-01   1.127266809344e-01  -1.451388746500e-02  -3.116894960403e-01   1.421072334051e-01   1.473288866691e-03   5.786242336035e-02 
  0.000000000000e+00   2.759635634720e-02  -8.365647196770e-01   1.141151636839e-01  -8.625925402157e-04  -6.901565790176e-01   2.701824903488e-02  -4.702503606677e-02  -6.102479100227e-01 