# vtk DataFile Version 2.0
Written using VisIt writer
ASCII
DATASET RECTILINEAR_GRID
DIMENSIONS 10 10 10
X_COORDINATES 10 float
  0.000000000000e+00   5.000000000000e-01   1.000000000000e+00   1.500000000000e+00   2.000000000000e+00   2.500000000000e+00   3.000000000000e+00   3.500000000000e+00   4.000000000000e+00 
  4.500000000000e+00 
Y_COORDINATES 10 float
  0.000000000000e+00   5.000000000000e-01   1.000000000000e+00   1.500000000000e+00   2.000000000000e+00   2.500000000000e+00   3.000000000000e+00   3.500000000000e+00   4.000000000000e+00 
  4.500000000000e+00 
Z_COORDINATES 10 float
  0.000000000000e+00   5.000000000000e-01   1.000000000000e+00   1.500000000000e+00   2.000000000000e+00   2.500000000000e+00   3.000000000000e+00   3.500000000000e+00   4.000000000000e+00 
  4.500000000000e+00 
CELL_DATA 729
POINT_DATA 1000
VECTORS velocity float
  0.000000000000e+00  -1.300313472748e-01  -2.613103091717e-01   3.251200000000e+04   0.000000000000e+00   0.000000000000e+00   0.000000000000e+00   0.000000000000e+00   0.000000000000e+00 
  6.984494626522e-02  -8.330725878477e-02  -1.615688800812e-01   0.000000000000e+00   0.000000000000e+00   0.000000000000e+00   0.000000000000e+00   1.431655808000e+09   1.070945600000e+09 
 -1.193392351270e-01  -7.985695451498e-02  -1.606444120407e-01   1.071994176000e+09   0.000000000000e+00   0.000000000000e+00   0.000000000000e+00   0.000000000000e+00   0.000000000000e+00 
  5.033295974135e-02  -1.924698054790e-01  -1.838197559118e-01   0.000000000000e+00  -1.300313472748e-01  -2.613103091717e-01   1.070945600000e+09   0.000000000000e+00   0.000000000000e+00 
  3.214773535728e-02  -1.282670199871e-01  -2.076951414347e-01   6.984494626522e-02  -8.330725878477e-02  -1.615688800812e-01   1.431655808000e+09   1.070945600000e+09   0.000000000000e+00 
 -5.138424411416e-02  -6.495062261820e-02  -1.361099034548e-01  -1.193392351270e-01  -7.985695451498e-02  -1.606444120407e-01   0.000000000000e+00   0.000000000000e+00   1.071644672000e+09 
  5.033295974135e-02  -1.924698054790e-01  -1.838197559118e-01   5.033295974135e-02  -1.924698054790e-01  -1.838197559118e-01   0.000000000000e+00  -4.349648952484e-02  -2.005569189787e-01 
  0.000000000000e+00  -4.349648952484e-02  -2.005569189787e-01  -7.856872864068e-03  -9.162592887878e-02  -2.090199887753e-01   1.592718958855e-01  -2.397991567850e-01  -1.861871480942e-01 
  1.829598471522e-02  -1.510330587626e-01  -1.886094510555e-01   3.987605124712e-02  -5.853401124477e-02  -1.412444859743e-01   2.236383594573e-02  -2.484769560397e-02  -1.366072148085e-01 
 -1.375356316566e-02  -5.302144214511e-02  -1.379146128893e-01   1.794597879052e-02  -9.261196479201e-03  -1.469838619232e-01   1.794597879052e-02  -9.261196479201e-03  -1.469838619232e-01 
  0.000000000000e+00   6.579235196114e-02  -1.952327042818e-01   0.000000000000e+00   6.579235196114e-02  -1.952327042818e-01   6.207398604602e-03   2.467762120068e-02  -1.771713197231e-01 
  5.705612897873e-02  -4.218481481075e-03  -1.486921757460e-01   7.772479951382e-02  -7.561831176281e-02  -1.537369638681e-01   1.994265243411e-02  -9.911720454693e-02  -1.593994349241e-01 
 -3.507974371314e-02  -5.155505612493e-02  -1.873849332333e-01  -2.253627317259e-04  -1.569139026105e-02  -1.418704986572e-01   3.156465291977e-02  -4.016259312630e-02  -1.469211727381e-01 
  3.156465291977e-02  -4.016259312630e-02  -1.469211727381e-01   0.000000000000e+00  -4.142430424690e-02  -2.463608533144e-01   0.000000000000e+00  -4.142430424690e-02  -2.463608533144e-01 
 -3.031910397112e-02  -4.673036560416e-02  -2.376308292150e-01   1.746233850718e-01  -5.734404921532e-02  -1.755412071943e-01   6.929760426283e-02  -9.289345145226e-02  -1.566616296768e-01 
 -6.219097226858e-02  -9.936233609915e-02  -1.707406193018e-01  -5.194305907935e-03  -3.554517030716e-02  -1.694734394550e-01  -3.704110160470e-02   5.159898864804e-05  -1.651401519775e-01 
 -5.905665084720e-02  -1.070868223906e-01  -1.920807957649e-01  -5.905665084720e-02  -1.070868223906e-01  -1.920807957649e-01   0.000000000000e+00   3.280144184828e-02  -2.015125751495e-01 
  0.000000000000e+00   3.280144184828e-02  -2.015125751495e-01   4.939698148519e-03  -4.894613102078e-02  -2.093116641045e-01   1.152801215649e-01  -4.818740114570e-02  -1.891292035580e-01 
 -6.724420003593e-03  -2.911011502147e-02  -1.996948719025e-01   3.951152414083e-02   1.503995899111e-02  -1.668874919415e-01   1.104024946690e-01  -5.249521136284e-02  -1.472412645817e-01 
 -4.646367952228e-02  -2.809745632112e-02  -1.529507040977e-01  -1.401883363724e-01  -2.879814058542e-02  -1.595202088356e-01  -1.401883363724e-01  -2.879814058542e-02  -1.595202088356e-01 
  0.000000000000e+00   1.091464888304e-02  -2.116707116365e-01   0.000000000000e+00   1.091464888304e-02  -2.116707116365e-01  -1.512499339879e-02  -4.826098307967e-02  -1.972006261349e-01 
  2.045050961897e-03   2.746284566820e-02  -1.810399740934e-01   5.460640415549e-02  -5.491755437106e-03  -1.780312508345e-01   7.469079643488e-02   9.263388812542e-03  -1.897936463356e-01 
  7.484860718250e-02  -4.737899079919e-02  -1.928203999996e-01   7.548651844263e-02   1.807220466435e-02  -1.464494764805e-01   3.137703984976e-02  -4.726899415255e-02  -1.457162797451e-01 
  3.137703984976e-02  -4.726899415255e-02  -1.457162797451e-01   0.000000000000e+00   5.333355441689e-02  -2.536028027534e-01   0.000000000000e+00   5.333355441689e-02  -2.536028027534e-01 
 -3.495676442981e-02  -3.977883607149e-02  -2.493728548288e-01   7.950211316347e-02   9.556083939970e-03  -1.878644376993e-01   1.261152625084e-01  -4.383752122521e-03  -1.593769639730e-01 
  1.660805195570e-02   4.165192693472e-02  -1.439698785543e-01   9.004376828671e-02   4.912932217121e-02  -1.470500081778e-01   3.079129569232e-02  -2.027312107384e-02  -1.653557270765e-01 
  7.813500612974e-02  -1.346710473299e-01  -1.971967518330e-01   7.813500612974e-02  -1.346710473299e-01  -1.971967518330e-01   0.000000000000e+00   0.000000000000e+00  -2.096868753433e-01 
  0.000000000000e+00   0.000000000000e+00  -2.096868753433e-01  -1.553886756301e-02   0.000000000000e+00  -1.913909614086e-01  -1.108078882098e-01   0.000000000000e+00  -1.886073797941e-01 
  3.091047145426e-02   0.000000000000e+00  -1.829331815243e-01   1.843517273664e-01   0.000000000000e+00  -1.281882971525e-01   3.195730745792e-01   0.000000000000e+00  -1.201352477074e-01 
  1.100266873837e-01   0.000000000000e+00  -1.343221515417e-01   1.667916774750e-01   0.000000000000e+00  -1.313120126724e-01   1.667916774750e-01   0.000000000000e+00  -1.313120126724e-01 
  0.000000000000e+00   0.000000000000e+00  -2.096868753433e-01   0.000000000000e+00   0.000000000000e+00  -2.096868753433e-01  -1.553886756301e-02   0.000000000000e+00  -1.913909614086e-01 
 -1.108078882098e-01   0.000000000000e+00  -1.886073797941e-01   3.091047145426e-02   0.000000000000e+00  -1.829331815243e-01   1.843517273664e-01   0.000000000000e+00  -1.281882971525e-01 
  3.195730745792e-01   0.000000000000e+00  -1.201352477074e-01   1.100266873837e-01   0.000000000000e+00  -1.343221515417e-01   1.667916774750e-01   0.000000000000e+00  -1.313120126724e-01 
  1.667916774750e-01   0.000000000000e+00  -1.313120126724e-01   0.000000000000e+00  -1.300313472748e-01  -2.613103091717e-01   0.000000000000e+00  -1.300313472748e-01  -2.613103091717e-01 
  3.214773535728e-02  -1.282670199871e-01  -2.076951414347e-01   6.984494626522e-02  -8.330725878477e-02  -1.615688800812e-01   2.223689481616e-02  -5.109548941255e-02  -1.422003656626e-01 
 -5.138424411416e-02  -6.495062261820e-02  -1.361099034548e-01  -1.193392351270e-01  -7.985695451498e-02  -1.606444120407e-01  -3.110700659454e-02  -9.387902915478e-02  -1.655328273773e-01 
  5.033295974135e-02  -1.924698054790e-01  -1.838197559118e-01   5.033295974135e-02  -1.924698054790e-01  -1.838197559118e-01   0.000000000000e+00  -1.300313472748e-01  -2.613103091717e-01 
  0.000000000000e+00  -1.300313472748e-01  -2.613103091717e-01   3.214773535728e-02  -1.282670199871e-01  -2.076951414347e-01   6.984494626522e-02  -8.330725878477e-02  -1.615688800812e-01 
  2.223689481616e-02  -5.109548941255e-02  -1.422003656626e-01  -5.138424411416e-02  -6.495062261820e-02  -1.361099034548e-01  -1.193392351270e-01  -7.985695451498e-02  -1.606444120407e-01 
 -3.110700659454e-02  -9.387902915478e-02  -1.655328273773e-01   5.033295974135e-02  -1.924698054790e-01  -1.838197559118e-01   5.033295974135e-02  -1.924698054790e-01  -1.838197559118e-01 
  0.000000000000e+00  -4.349648952484e-02  -2.005569189787e-01   0.000000000000e+00  -4.349648952484e-02  -2.005569189787e-01  -7.856872864068e-03  -9.162592887878e-02  -2.090199887753e-01 
  1.592718958855e-01  -2.397991567850e-01  -1.861871480942e-01   1.829598471522e-02  -1.510330587626e-01  -1.886094510555e-01   3.987605124712e-02  -5.853401124477e-02  -1.412444859743e-01 
  2.236383594573e-02  -2.484769560397e-02  -1.366072148085e-01  -1.375356316566e-02  -5.302144214511e-02  -1.379146128893e-01   1.794597879052e-02  -9.261196479201e-03  -1.469838619232e-01 
  1.794597879052e-02  -9.261196479201e-03  -1.469838619232e-01   0.000000000000e+00   6.579235196114e-02  -1.952327042818e-01   0.000000000000e+00   6.579235196114e-02  -1.952327042818e-01 
  6.207398604602e-03   2.467762120068e-02  -1.771713197231e-01   5.705612897873e-02  -4.218481481075e-03  -1.486921757460e-01   7.772479951382e-02  -7.561831176281e-02  -1.537369638681e-01 
  1.994265243411e-02  -9.911720454693e-02  -1.593994349241e-01  -3.507974371314e-02  -5.155505612493e-02  -1.873849332333e-01  -2.253627317259e-04  -1.569139026105e-02  -1.418704986572e-01 
  3.156465291977e-02  -4.016259312630e-02  -1.469211727381e-01   3.156465291977e-02  -4.016259312630e-02  -1.469211727381e-01   0.000000000000e+00  -4.142430424690e-02  -2.463608533144e-01 
  0.000000000000e+00  -4.142430424690e-02  -2.463608533144e-01  -3.031910397112e-02  -4.673036560416e-02  -2.376308292150e-01   1.746233850718e-01  -5.734404921532e-02  -1.755412071943e-01 
  6.929760426283e-02  -9.289345145226e-02  -1.566616296768e-01  -6.219097226858e-02  -9.936233609915e-02  -1.707406193018e-01  -5.194305907935e-03  -3.554517030716e-02  -1.694734394550e-01 
 -3.704110160470e-02   5.159898864804e-05  -1.651401519775e-01  -5.905665084720e-02  -1.070868223906e-01  -1.920807957649e-01  -5.905665084720e-02  -1.070868223906e-01  -1.920807957649e-01 
  0.000000000000e+00   3.280144184828e-02  -2.015125751495e-01   0.000000000000e+00   3.280144184828e-02  -2.015125751495e-01   4.939698148519e-03  -4.894613102078e-02  -2.093116641045e-01 
  1.152801215649e-01  -4.818740114570e-02  -1.891292035580e-01  -6.724420003593e-03  -2.911011502147e-02  -1.996948719025e-01   3.951152414083e-02   1.503995899111e-02  -1.668874919415e-01 
  1.104024946690e-01  -5.249521136284e-02  -1.472412645817e-01  -4.646367952228e-02  -2.809745632112e-02  -1.529507040977e-01  -1.401883363724e-01  -2.879814058542e-02  -1.595202088356e-01 
 -1.401883363724e-01  -2.879814058542e-02  -1.595202088356e-01   0.000000000000e+00   1.091464888304e-02  -2.116707116365e-01   0.000000000000e+00   1.091464888304e-02  -2.116707116365e-01 
 -1.512499339879e-02  -4.826098307967e-02  -1.972006261349e-01   2.045050961897e-03   2.746284566820e-02  -1.810399740934e-01   5.460640415549e-02  -5.491755437106e-03  -1.780312508345e-01 
  7.469079643488e-02   9.263388812542e-03  -1.897936463356e-01   7.484860718250e-02  -4.737899079919e-02  -1.928203999996e-01   7.548651844263e-02   1.807220466435e-02  -1.464494764805e-01 
  3.137703984976e-02  -4.726899415255e-02  -1.457162797451e-01   3.137703984976e-02  -4.726899415255e-02  -1.457162797451e-01   0.000000000000e+00   5.333355441689e-02  -2.536028027534e-01 
  0.000000000000e+00   5.333355441689e-02  -2.536028027534e-01  -3.495676442981e-02  -3.977883607149e-02  -2.493728548288e-01   7.950211316347e-02   9.556083939970e-03  -1.878644376993e-01 
  1.261152625084e-01  -4.383752122521e-03  -1.593769639730e-01   1.660805195570e-02   4.165192693472e-02  -1.439698785543e-01   9.004376828671e-02   4.912932217121e-02  -1.470500081778e-01 
  3.079129569232e-02  -2.027312107384e-02  -1.653557270765e-01   7.813500612974e-02  -1.346710473299e-01  -1.971967518330e-01   7.813500612974e-02  -1.346710473299e-01  -1.971967518330e-01 
  0.000000000000e+00   0.000000000000e+00  -2.096868753433e-01   0.000000000000e+00   0.000000000000e+00  -2.096868753433e-01  -1.553886756301e-02   0.000000000000e+00  -1.913909614086e-01 
 -1.108078882098e-01   0.000000000000e+00  -1.886073797941e-01   3.091047145426e-02   0.000000000000e+00  -1.829331815243e-01   1.843517273664e-01   0.000000000000e+00  -1.281882971525e-01 
  3.195730745792e-01   0.000000000000e+00  -1.201352477074e-01   1.100266873837e-01   0.000000000000e+00  -1.343221515417e-01   1.667916774750e-01   0.000000000000e+00  -1.313120126724e-01 
  1.667916774750e-01   0.000000000000e+00  -1.313120126724e-01   0.000000000000e+00   0.000000000000e+00  -2.096868753433e-01   0.000000000000e+00   0.000000000000e+00  -2.096868753433e-01 
 -1.553886756301e-02   0.000000000000e+00  -1.913909614086e-01  -1.108078882098e-01   0.000000000000e+00  -1.886073797941e-01   3.091047145426e-02   0.000000000000e+00  -1.829331815243e-01 
  1.843517273664e-01   0.000000000000e+00  -1.281882971525e-01   3.195730745792e-01   0.000000000000e+00  -1.201352477074e-01   1.100266873837e-01   0.000000000000e+00  -1.343221515417e-01 
  1.667916774750e-01   0.000000000000e+00  -1.313120126724e-01   1.667916774750e-01   0.000000000000e+00  -1.313120126724e-01   0.000000000000e+00  -1.001076176763e-01  -7.552940845490e-01 
  0.000000000000e+00  -1.001076176763e-01  -7.552940845490e-01   4.325977265835e-01  -3.831644356251e-02  -7.572154402733e-01   6.965869665146e-01  -3.666689619422e-02  -5.793631672859e-01 
  8.701115250587e-01  -3.886827453971e-02  -3.704016208649e-01   1.509011387825e-01   2.346947342157e-01  -6.389009952545e-02  -7.144694030285e-02   0.000000000000e+00  -7.673302292824e-01 
 -4.589684680104e-02   2.257739305496e-01  -7.624418139458e-01  -1.798143237829e-02   9.075548052788e-01  -1.618024893105e-02  -1.798143237829e-02   9.075548052788e-01  -1.618024893105e-02 
  0.000000000000e+00  -1.001076176763e-01  -7.552940845490e-01   0.000000000000e+00  -1.001076176763e-01  -7.552940845490e-01   4.325977265835e-01  -3.831644356251e-02  -7.572154402733e-01 
  6.965869665146e-01  -3.666689619422e-02  -5.793631672859e-01   8.701115250587e-01  -3.886827453971e-02  -3.704016208649e-01   1.509011387825e-01   2.346947342157e-01  -6.389009952545e-02 
 -7.144694030285e-02   0.000000000000e+00  -7.673302292824e-01  -4.589684680104e-02   2.257739305496e-01  -7.624418139458e-01  -1.798143237829e-02   9.075548052788e-01  -1.618024893105e-02 
 -1.798143237829e-02   9.075548052788e-01  -1.618024893105e-02   0.000000000000e+00  -2.813418395817e-02  -9.059208631516e-01   0.000000000000e+00  -2.813418395817e-02  -9.059208631516e-01 
  2.730059325695e-01  -5.158674716949e-02  -8.258305788040e-01   4.382512271404e-01  -4.832841083407e-02  -8.300442695618e-01   3.342130482197e-01  -1.010181456804e-01  -6.291804313660e-01 
 -5.304155126214e-02   5.888759493828e-01  -5.875551328063e-02  -4.104774561711e-04   1.763601422310e+00  -7.620845437050e-01  -5.897628888488e-02   5.844380855560e-01  -7.900600433350e-01 
 -4.370108246803e-01   1.190616965294e+00  -5.301613360643e-02  -4.370108246803e-01   1.190616965294e+00  -5.301613360643e-02   0.000000000000e+00   1.196127906442e-01  -1.106433391571e+00 
  0.000000000000e+00   1.196127906442e-01  -1.106433391571e+00   2.317177355289e-01  -1.500355824828e-02  -7.809366583824e-01   4.911128580570e-01  -1.965752243996e-01  -7.270622253418e-01 
  8.441631197929e-01  -1.529767829925e-02  -7.811183929443e-01  -8.775120973587e-01   5.053597092628e-01  -4.060056805611e-02  -6.067126989365e-01   1.705035686493e+00   6.634202599525e-01 
 -4.141606390476e-01   1.972160786390e-01   7.682104408741e-02  -7.784077525139e-01   7.270292043686e-01  -4.737296402454e-01  -7.784077525139e-01   7.270292043686e-01  -4.737296402454e-01 
  0.000000000000e+00   1.027648001909e-01  -9.782155156136e-01   0.000000000000e+00   1.027648001909e-01  -9.782155156136e-01   3.708392679691e-01  -4.258927423507e-03  -8.105429410934e-01 
  5.961135029793e-01  -3.485233709216e-02  -7.627388238907e-01   7.451168298721e-01  -4.215018451214e-02  -7.017019391060e-01  -2.658640623093e+00   5.804763361812e-02   2.064244896173e-01 
 -1.179841279984e+00  -3.110547922552e-02  -3.058039844036e-01  -7.573099136353e-01   7.375721633434e-02  -1.944894716144e-02  -8.415512442589e-01   4.023616611958e-01  -6.763410568237e-02 
 -8.415512442589e-01   4.023616611958e-01  -6.763410568237e-02   0.000000000000e+00   6.541547179222e-02  -1.082904577255e+00   0.000000000000e+00   6.541547179222e-02  -1.082904577255e+00 
  2.377418726683e-01  -7.075038552284e-02  -1.104360342026e+00   4.182822406292e-01  -1.798324845731e-02  -8.309299945831e-01   6.819571852684e-01   6.585568934679e-02  -6.608694791794e-01 
  4.885374605656e-01   2.177911847830e-01  -7.883794307709e-01  -2.587298154831e-01   9.648484736681e-02  -5.705332010984e-02  -9.403524398804e-01   7.257036119699e-02  -3.157614469528e-01 
 -4.822326451540e-02   5.781777668744e-03  -8.919944614172e-02  -4.822326451540e-02   5.781777668744e-03  -8.919944614172e-02   0.000000000000e+00   1.540270596743e-01  -1.054326176643e+00 
  0.000000000000e+00   1.540270596743e-01  -1.054326176643e+00   2.636153697968e-01   1.060683429241e-01  -8.798676133156e-01   3.354064524174e-01   4.034066200256e-02  -1.020205497742e+00 
  5.968666076660e-01  -2.272961884737e-01  -7.872135639191e-01   5.927785634995e-01  -1.681696027517e-01  -7.755195498466e-01  -1.710681766272e-01  -1.504414379597e-01  -2.466680705547e-01 
  2.912185788155e-01  -1.484877765179e-01  -5.462809801102e-01  -2.914806008339e-01  -3.728673979640e-02  -4.833234846592e-01  -2.914806008339e-01  -3.728673979640e-02  -4.833234846592e-01 
  0.000000000000e+00  -6.360892206430e-03  -1.099160075188e+00   0.000000000000e+00  -6.360892206430e-03  -1.099160075188e+00   8.057138323784e-02   1.107464432716e-01  -1.558240056038e+00 
  2.113623917103e-01   1.735073700547e-02  -1.272094368935e+00   5.028934478760e-01  -4.057745635509e-02  -8.542007803917e-01  -1.484086275101e+00   4.903551936150e-02  -7.766984701157e-01 
 -6.655362248421e-02   2.966651916504e-01  -1.077362656593e+00   6.365975141525e-01  -4.019645974040e-02  -7.287091016769e-01  -1.266785740852e+00  -9.930552542210e-02  -6.441998481750e-01 
 -1.266785740852e+00  -9.930552542210e-02  -6.441998481750e-01   0.000000000000e+00   0.000000000000e+00  -1.400217056274e+00   0.000000000000e+00   0.000000000000e+00  -1.400217056274e+00 
  2.157857269049e-01   0.000000000000e+00  -1.184119701385e+00   4.017715752125e-01   0.000000000000e+00  -1.183834195137e+00   5.863638520241e-01   0.000000000000e+00  -3.148940205574e-01 
 -2.959648966789e-01   5.805345717818e-03  -8.627720475197e-01   1.830792188644e+00   0.000000000000e+00  -1.219757556915e+00   2.736605405807e+00   0.000000000000e+00  -1.047486782074e+00 
  3.750993907452e-01  -1.348386146128e-02  -6.868798285723e-02   3.750993907452e-01  -1.348386146128e-02  -6.868798285723e-02   0.000000000000e+00   0.000000000000e+00  -1.400217056274e+00 
  0.000000000000e+00   0.000000000000e+00  -1.400217056274e+00   2.157857269049e-01   0.000000000000e+00  -1.184119701385e+00   4.017715752125e-01   0.000000000000e+00  -1.183834195137e+00 
  5.863638520241e-01   0.000000000000e+00  -3.148940205574e-01  -2.959648966789e-01   5.805345717818e-03  -8.627720475197e-01   1.830792188644e+00   0.000000000000e+00  -1.219757556915e+00 
  2.736605405807e+00   0.000000000000e+00  -1.047486782074e+00   3.750993907452e-01  -1.348386146128e-02  -6.868798285723e-02   3.750993907452e-01  -1.348386146128e-02  -6.868798285723e-02 
  0.000000000000e+00  -1.284531783313e-02  -4.638714790344e-01   0.000000000000e+00  -1.284531783313e-02  -4.638714790344e-01   2.768113315105e-01   1.128109246492e-01  -2.774641811848e-01 
  4.464096128941e-01   2.326910383999e-02  -2.069206535816e-01   6.964437365532e-01  -2.463870448992e-03   2.143657505512e-01   4.758359193802e-01   4.293201267719e-01  -2.616730332375e-01 
 -4.612228646874e-02   5.186001658440e-01  -8.279746174812e-01   1.488624513149e-02   4.285908341408e-01  -5.876352190971e-01   9.121861308813e-02   0.000000000000e+00  -1.000000014901e-01 
  9.121861308813e-02   0.000000000000e+00  -1.000000014901e-01   0.000000000000e+00  -1.284531783313e-02  -4.638714790344e-01   0.000000000000e+00  -1.284531783313e-02  -4.638714790344e-01 
  2.768113315105e-01   1.128109246492e-01  -2.774641811848e-01   4.464096128941e-01   2.326910383999e-02  -2.069206535816e-01   6.964437365532e-01  -2.463870448992e-03   2.143657505512e-01 
  4.758359193802e-01   4.293201267719e-01  -2.616730332375e-01  -4.612228646874e-02   5.186001658440e-01  -8.279746174812e-01   1.488624513149e-02   4.285908341408e-01  -5.876352190971e-01 
  9.121861308813e-02   0.000000000000e+00  -1.000000014901e-01   9.121861308813e-02   0.000000000000e+00  -1.000000014901e-01   0.000000000000e+00  -4.512000083923e-02  -4.219338297844e-01 
  0.000000000000e+00  -4.512000083923e-02  -4.219338297844e-01   2.105872929096e-01  -3.223358094692e-02  -3.670774102211e-01   1.711204349995e-01  -4.147580265999e-02  -5.016439557076e-01 
  2.880135178566e-01  -2.743368037045e-02  -6.069831252098e-01  -2.220217138529e-01   6.700319051743e-01  -3.706903755665e-01  -1.508336141706e-02   1.108794093132e+00  -8.572575449944e-01 
  0.000000000000e+00   1.124029517174e+00  -8.279746174812e-01   1.929778605700e-01   1.457278609276e+00  -5.211096405983e-01   1.929778605700e-01   1.457278609276e+00  -5.211096405983e-01 
  0.000000000000e+00   1.976168155670e-01  -4.138619303703e-01   0.000000000000e+00   1.976168155670e-01  -4.138619303703e-01   1.940670013428e-01   1.668293401599e-02  -4.235087633133e-01 
  2.779032289982e-01  -6.179976090789e-02  -4.744607806206e-01   5.593021512032e-01   9.316822513938e-03  -6.947394609451e-01  -9.729663133621e-01   2.843553721905e-01   1.324471831322e-01 
 -2.192105948925e-01   0.000000000000e+00  -2.595369815826e-01  -2.954242825508e-01   9.591357707977e-01   1.187565028667e-01  -7.500150203705e-01   1.369482398033e+00   9.923383593559e-02 
 -7.500150203705e-01   1.369482398033e+00   9.923383593559e-02   0.000000000000e+00   1.211246177554e-01  -4.365724325180e-01   0.000000000000e+00   1.211246177554e-01  -4.365724325180e-01 
  2.387165576220e-01  -3.607094287872e-02  -1.812865287066e-01   4.547429382801e-01  -3.090205974877e-02  -2.648332715034e-01   4.674721360207e-01   1.002834439278e-01  -2.070623040199e-01 
 -1.212203979492e+00   1.064740493894e-01   4.132276475430e-01   3.701211139560e-02   1.008445471525e-01  -6.588028073311e-01  -4.388845562935e-01   7.287681102753e-02   1.882752031088e-01 
 -6.655783653259e-01   8.250115513802e-01   3.353898972273e-02  -6.655783653259e-01   8.250115513802e-01   3.353898972273e-02   0.000000000000e+00   3.579156100750e-02  -4.721772670746e-01 
  0.000000000000e+00   3.579156100750e-02  -4.721772670746e-01   1.414040327072e-01   3.262157365680e-02  -6.629415154457e-01   2.441531866789e-01   1.602288149297e-02  -6.277362704277e-01 
  4.559932947159e-01   9.975075721741e-02  -5.659942626953e-01   2.241328954697e-01   1.617757230997e-01   1.253212839365e-01  -3.033105731010e-01   6.906892359257e-02   3.872147575021e-02 
 -6.928428411484e-01   7.174264639616e-02  -3.478357940912e-02  -7.549732178450e-02   1.450208295137e-02  -1.280058547854e-02  -7.549732178450e-02   1.450208295137e-02  -1.280058547854e-02 
  0.000000000000e+00   1.546132415533e-01  -6.449862122536e-01   0.000000000000e+00   1.546132415533e-01  -6.449862122536e-01   1.473961174488e-01   8.907499909401e-02  -4.280654191971e-01 
  2.560206055641e-01  -1.590147614479e-02  -7.948950529099e-01   2.510658204556e-01   1.563294231892e-02  -9.324359297752e-01  -9.058949351311e-02  -1.456991136074e-01   1.705817729235e-01 
 -5.057384371758e-01  -1.435018032789e-01   2.211598008871e-01   2.534847939387e-03  -8.980120718479e-02  -4.900829792023e-01  -1.963256597519e-01  -2.291582711041e-02  -4.854923486710e-01 
 -1.963256597519e-01  -2.291582711041e-02  -4.854923486710e-01   0.000000000000e+00   7.543592900038e-02  -4.773357212543e-01   0.000000000000e+00   7.543592900038e-02  -4.773357212543e-01 
  2.181977033615e-01   7.456364482641e-02  -4.494602680206e-01   2.842285037041e-01   3.540770709515e-02  -7.232698202133e-01   4.076041281223e-01  -5.793732032180e-02  -1.135058045387e+00 
 -1.457325577736e+00  -9.265704452991e-02  -9.870975613594e-01  -1.191441416740e+00   1.251004189253e-01  -1.202959656715e+00  -4.698002710938e-02   9.263256564736e-03  -1.125778198242e+00 
  0.000000000000e+00  -6.459384411573e-02  -7.904490828514e-01   0.000000000000e+00  -6.459384411573e-02  -7.904490828514e-01   0.000000000000e+00   0.000000000000e+00  -4.642212092876e-01 
  0.000000000000e+00   0.000000000000e+00  -4.642212092876e-01   5.262291431427e-02   0.000000000000e+00  -5.406862497330e-01   1.681348830462e-01   7.478952873498e-03  -9.448629617691e-01 
  4.662583768368e-01  -1.677268743515e-02  -7.433542013168e-01  -8.107222914696e-01   0.000000000000e+00  -1.068009614944e+00  -3.797285258770e-01   0.000000000000e+00  -1.117354750633e+00 
 -4.219772219658e-01   0.000000000000e+00  -1.101298570633e+00  -7.213856279850e-02  -1.149074546993e-02  -5.362660884857e-01  -7.213856279850e-02  -1.149074546993e-02  -5.362660884857e-01 
  0.000000000000e+00   0.000000000000e+00  -4.642212092876e-01   0.000000000000e+00   0.000000000000e+00  -4.642212092876e-01   5.262291431427e-02   0.000000000000e+00  -5.406862497330e-01 
  1.681348830462e-01   7.478952873498e-03  -9.448629617691e-01   4.662583768368e-01  -1.677268743515e-02  -7.433542013168e-01  -8.107222914696e-01   0.000000000000e+00  -1.068009614944e+00 
 -3.797285258770e-01   0.000000000000e+00  -1.117354750633e+00  -4.219772219658e-01   0.000000000000e+00  -1.101298570633e+00  -7.213856279850e-02  -1.149074546993e-02  -5.362660884857e-01 
 -7.213856279850e-02  -1.149074546993e-02  -5.362660884857e-01   0.000000000000e+00   2.457835897803e-02  -5.261298418045e-01   0.000000000000e+00   2.457835897803e-02  -5.261298418045e-01 
  1.091529354453e-01   2.888571657240e-02  -3.356843292713e-01   5.772449374199e-01   2.062477543950e-02  -9.708142280579e-01   7.050429582596e-01   0.000000000000e+00  -9.972905516624e-01 
  0.000000000000e+00   5.371593832970e-01  -1.000000014901e-01   0.000000000000e+00   2.699290215969e-01  -4.671455323696e-01   0.000000000000e+00   0.000000000000e+00  -1.346714142710e-02 
 -9.477718733251e-03   5.530704930425e-02   3.118114732206e-02  -9.477718733251e-03   5.530704930425e-02   3.118114732206e-02   0.000000000000e+00   2.457835897803e-02  -5.261298418045e-01 
  0.000000000000e+00   2.457835897803e-02  -5.261298418045e-01   1.091529354453e-01   2.888571657240e-02  -3.356843292713e-01   5.772449374199e-01   2.062477543950e-02  -9.708142280579e-01 
  7.050429582596e-01   0.000000000000e+00  -9.972905516624e-01   0.000000000000e+00   5.371593832970e-01  -1.000000014901e-01   0.000000000000e+00   2.699290215969e-01  -4.671455323696e-01 
  0.000000000000e+00   0.000000000000e+00  -1.346714142710e-02  -9.477718733251e-03   5.530704930425e-02   3.118114732206e-02  -9.477718733251e-03   5.530704930425e-02   3.118114732206e-02 
  0.000000000000e+00   4.103003814816e-02  -8.396239280701e-01   0.000000000000e+00   4.103003814816e-02  -8.396239280701e-01   1.302274614573e-01  -8.009861409664e-02  -4.075162708759e-01 
  1.482023745775e-01  -1.010314226151e-01  -3.837206363678e-01   4.324557483196e-01   0.000000000000e+00  -3.835122883320e-01   1.840003877878e-01   6.009200215340e-01  -5.265570878983e-01 
 -1.886061765254e-02   5.440390706062e-01  -7.931439280510e-01   2.960125543177e-02   4.719786718488e-02  -1.000000014901e-01   9.115613996983e-02   3.991483151913e-02  -6.089058518410e-01 
  9.115613996983e-02   3.991483151913e-02  -6.089058518410e-01   0.000000000000e+00   1.479585617781e-01  -4.174895584583e-01   0.000000000000e+00   1.479585617781e-01  -4.174895584583e-01 
  5.644151568413e-02   1.239181309938e-01  -1.200516670942e-01   1.447011828423e-01   8.858579397202e-02  -2.258140742779e-01   3.870971500874e-01   5.859446898103e-02  -2.925902009010e-01 
 -1.478648930788e-01   1.781289875507e-01  -4.864164590836e-01  -1.245262101293e-01   2.862466871738e-02  -1.709575772285e+00  -1.607165336609e-01   3.458281159401e-01  -5.945091247559e-01 
 -2.092210352421e-01   0.000000000000e+00  -5.650077462196e-01  -2.092210352421e-01   0.000000000000e+00  -5.650077462196e-01   0.000000000000e+00   8.528912067413e-02  -4.135250747204e-01 
  0.000000000000e+00   8.528912067413e-02  -4.135250747204e-01   1.376843899488e-01  -1.410997658968e-01   1.773004047573e-02   3.076526224613e-01  -9.036174416542e-02  -3.762446343899e-01 
  6.676824688911e-01   0.000000000000e+00  -2.182832211256e-01   1.109967678785e-01   9.132491052151e-02  -4.348136782646e-01   0.000000000000e+00   0.000000000000e+00  -1.727988123894e+00 
  0.000000000000e+00   6.665454804897e-02  -1.709575772285e+00  -4.189465045929e-01   0.000000000000e+00  -6.109794974327e-01  -4.189465045929e-01   0.000000000000e+00  -6.109794974327e-01 
  0.000000000000e+00  -2.254457445815e-03  -6.669450402260e-01   0.000000000000e+00  -2.254457445815e-03  -6.669450402260e-01   1.722470819950e-01   2.531930208206e-01  -3.196359872818e-01 
  4.622722566128e-01   3.857561573386e-02  -7.918704152107e-01   6.592433452606e-01   1.721200644970e-01  -1.723029017448e-01   1.702247709036e-01   1.352730393410e-01   6.422678828239e-01 
 -8.341292850673e-03   4.444361478090e-02  -8.087509870529e-01  -3.514739274979e-01   6.351532042027e-02  -4.876310229301e-01  -1.515607088804e-01   2.569508552551e-02  -1.000000014901e-01 