# vtk DataFile Version 2.0
Written using VisIt writer
ASCII
DATASET RECTILINEAR_GRID
DIMENSIONS 10 10 10
X_COORDINATES 10 float
  0.000000000000e+00   5.000000000000e-01   1.000000000000e+00   1.500000000000e+00   2.000000000000e+00   2.500000000000e+00   3.000000000000e+00   3.500000000000e+00   4.000000000000e+00 
  4.500000000000e+00 
Y_COORDINATES 10 float
  0.000000000000e+00   5.000000000000e-01   1.000000000000e+00   1.500000000000e+00   2.000000000000e+00   2.500000000000e+00   3.000000000000e+00   3.500000000000e+00   4.000000000000e+00 
  4.500000000000e+00 
Z_COORDINATES 10 float
  0.000000000000e+00   5.000000000000e-01   1.000000000000e+00   1.500000000000e+00   2.000000000000e+00   2.500000000000e+00   3.000000000000e+00   3.500000000000e+00   4.000000000000e+00 
  4.500000000000e+00 
CELL_DATA 729
POINT_DATA 1000
VECTORS velocity float
  0.000000000000e+00  -1.088601276278e-01  -2.196538150311e-01   3.251200000000e+04   0.000000000000e+00   0.000000000000e+00   0.000000000000e+00   0.000000000000e+00   0.000000000000e+00 
  2.716106921434e-02  -7.690971344709e-02  -1.493345499039e-01   0.000000000000e+00   0.000000000000e+00   0.000000000000e+00   0.000000000000e+00   1.431655808000e+09   1.070945600000e+09 
 -1.058735847473e-01  -8.874823153019e-02  -1.627953201532e-01   1.071994176000e+09   0.000000000000e+00   0.000000000000e+00   0.000000000000e+00   0.000000000000e+00   0.000000000000e+00 
 -2.544246986508e-02  -1.848104447126e-01  -1.856069415808e-01   0.000000000000e+00  -1.088601276278e-01  -2.196538150311e-01   1.070945600000e+09   0.000000000000e+00   0.000000000000e+00 
  7.111339946277e-04  -1.257130801678e-01  -1.998822093010e-01   2.716106921434e-02  -7.690971344709e-02  -1.493345499039e-01   1.431655808000e+09   1.070945600000e+09   0.000000000000e+00 
 -9.314600378275e-02  -6.058319285512e-02  -1.362699866295e-01  -1.058735847473e-01  -8.874823153019e-02  -1.627953201532e-01   0.000000000000e+00   0.000000000000e+00   1.071644672000e+09 
 -2.544246986508e-02  -1.848104447126e-01  -1.856069415808e-01  -2.544246986508e-02  -1.848104447126e-01  -1.856069415808e-01   0.000000000000e+00   1.030213199556e-02  -1.835611909628e-01 
  0.000000000000e+00   1.030213199556e-02  -1.835611909628e-01  -2.470755390823e-02  -2.469103597105e-02  -1.980946362019e-01   2.398662827909e-02  -1.773817539215e-01  -1.769816130400e-01 
 -7.605987787247e-02  -2.002978324890e-01  -1.895021200180e-01   1.556147728115e-02  -8.032283931971e-02  -1.404638886452e-01   5.373167991638e-02  -2.247091196477e-02  -1.387607604265e-01 
  1.053724321537e-03  -2.325972914696e-02  -1.390921026468e-01  -4.981024935842e-02   1.444353605621e-03  -1.499342173338e-01  -4.981024935842e-02   1.444353605621e-03  -1.499342173338e-01 
  0.000000000000e+00   1.417073886842e-02  -1.955246478319e-01   0.000000000000e+00   1.417073886842e-02  -1.955246478319e-01   1.293470431119e-02   4.729483276606e-02  -1.685509532690e-01 
  1.416952628642e-02   5.527814477682e-02  -1.468488574028e-01   2.740753628314e-02  -6.373400241137e-02  -1.510792970657e-01  -5.549577251077e-02  -1.256256103516e-01  -1.549681276083e-01 
 -1.339853107929e-01  -8.333148062229e-02  -1.843752115965e-01   2.330752834678e-02   1.661842316389e-02  -1.376179307699e-01  -3.719711303711e-02  -5.180884152651e-02  -1.451441943645e-01 
 -3.719711303711e-02  -5.180884152651e-02  -1.451441943645e-01   0.000000000000e+00  -3.775614500046e-02  -2.350625842810e-01   0.000000000000e+00  -3.775614500046e-02  -2.350625842810e-01 
 -5.036272481084e-02  -6.366588175297e-02  -2.249736338854e-01   1.325667649508e-01  -6.460259854794e-02  -1.670098304749e-01   1.265443265438e-01  -4.584516212344e-02  -1.501772999763e-01 
 -5.416030436754e-02   1.500108186156e-02  -1.388680636883e-01  -8.367190510035e-02   4.389752820134e-02  -1.513078361750e-01  -2.035249769688e-02   2.820223942399e-02  -1.561208069324e-01 
 -1.737067252398e-01  -4.564189910889e-02  -2.238152623177e-01  -1.737067252398e-01  -4.564189910889e-02  -2.238152623177e-01   0.000000000000e+00  -4.590942058712e-03  -1.884842962027e-01 
  0.000000000000e+00  -4.590942058712e-03  -1.884842962027e-01   3.302721772343e-03  -2.539112605155e-02  -1.951517015696e-01   8.882073312998e-02  -7.151590287685e-02  -2.081784009933e-01 
  1.415779814124e-02  -2.319856360555e-02  -1.930415332317e-01   1.586750522256e-02   1.115397922695e-02  -1.447082161903e-01   6.371607631445e-02  -7.298514991999e-02  -1.468988656998e-01 
 -3.763252124190e-02  -6.231098994613e-02  -1.486447602510e-01  -8.359745889902e-02  -1.771991141140e-02  -1.633869856596e-01  -8.359745889902e-02  -1.771991141140e-02  -1.633869856596e-01 
  0.000000000000e+00   6.385260820389e-02  -1.857106536627e-01   0.000000000000e+00   6.385260820389e-02  -1.857106536627e-01  -3.409858420491e-02  -4.082207381725e-02  -1.777047365904e-01 
 -2.277485281229e-02   3.734855353832e-02  -1.758366525173e-01   3.320611640811e-02   2.001635730267e-02  -1.613387018442e-01  -2.551336947363e-04   3.232887387276e-02  -1.641097068787e-01 
 -1.206145342439e-02  -2.638970129192e-02  -1.874151676893e-01   2.872805856168e-02  -3.955549094826e-03  -1.507305502892e-01   4.420791566372e-02  -1.161144003272e-01  -1.597690880299e-01 
  4.420791566372e-02  -1.161144003272e-01  -1.597690880299e-01   0.000000000000e+00   1.016942709684e-01  -2.363030165434e-01   0.000000000000e+00   1.016942709684e-01  -2.363030165434e-01 
 -3.444967418909e-02  -1.421303488314e-02  -2.379273027182e-01   7.447678595781e-02   1.368235517293e-02  -1.778025478125e-01   7.571332156658e-02  -6.612759828568e-02  -1.465518921614e-01 
 -3.940135240555e-02   8.794763125479e-03  -1.407965123653e-01   3.289946913719e-02   8.661918342113e-02  -1.466863900423e-01   6.795527786016e-02   6.113410741091e-02  -1.596276313066e-01 
  2.786725200713e-02  -7.802532613277e-02  -2.009779214859e-01   2.786725200713e-02  -7.802532613277e-02  -2.009779214859e-01   0.000000000000e+00   0.000000000000e+00  -1.829031705856e-01 
  0.000000000000e+00   0.000000000000e+00  -1.829031705856e-01   9.510315954685e-03   0.000000000000e+00  -1.885755956173e-01  -9.887411445379e-02   0.000000000000e+00  -1.827123016119e-01 
  1.177393496037e-01   0.000000000000e+00  -2.000206261873e-01   2.109029702842e-02   0.000000000000e+00  -1.381044238806e-01   1.432277560234e-01   0.000000000000e+00  -1.278122812510e-01 
  1.264850348234e-01   0.000000000000e+00  -1.299452334642e-01   9.045097231865e-02   0.000000000000e+00  -1.372280865908e-01   9.045097231865e-02   0.000000000000e+00  -1.372280865908e-01 
  0.000000000000e+00   0.000000000000e+00  -1.829031705856e-01   0.000000000000e+00   0.000000000000e+00  -1.829031705856e-01   9.510315954685e-03   0.000000000000e+00  -1.885755956173e-01 
 -9.887411445379e-02   0.000000000000e+00  -1.827123016119e-01   1.177393496037e-01   0.000000000000e+00  -2.000206261873e-01   2.109029702842e-02   0.000000000000e+00  -1.381044238806e-01 
  1.432277560234e-01   0.000000000000e+00  -1.278122812510e-01   1.264850348234e-01   0.000000000000e+00  -1.299452334642e-01   9.045097231865e-02   0.000000000000e+00  -1.372280865908e-01 
  9.045097231865e-02   0.000000000000e+00  -1.372280865908e-01   0.000000000000e+00  -1.088601276278e-01  -2.196538150311e-01   0.000000000000e+00  -1.088601276278e-01  -2.196538150311e-01 
  7.111339946277e-04  -1.257130801678e-01  -1.998822093010e-01   2.716106921434e-02  -7.690971344709e-02  -1.493345499039e-01   4.474333021790e-03  -4.785880073905e-02  -1.383597403765e-01 
 -9.314600378275e-02  -6.058319285512e-02  -1.362699866295e-01  -1.058735847473e-01  -8.874823153019e-02  -1.627953201532e-01  -9.463045746088e-02  -8.106344193220e-02  -1.689202487469e-01 
 -2.544246986508e-02  -1.848104447126e-01  -1.856069415808e-01  -2.544246986508e-02  -1.848104447126e-01  -1.856069415808e-01   0.000000000000e+00  -1.088601276278e-01  -2.196538150311e-01 
  0.000000000000e+00  -1.088601276278e-01  -2.196538150311e-01   7.111339946277e-04  -1.257130801678e-01  -1.998822093010e-01   2.716106921434e-02  -7.690971344709e-02  -1.493345499039e-01 
  4.474333021790e-03  -4.785880073905e-02  -1.383597403765e-01  -9.314600378275e-02  -6.058319285512e-02  -1.362699866295e-01  -1.058735847473e-01  -8.874823153019e-02  -1.627953201532e-01 
 -9.463045746088e-02  -8.106344193220e-02  -1.689202487469e-01  -2.544246986508e-02  -1.848104447126e-01  -1.856069415808e-01  -2.544246986508e-02  -1.848104447126e-01  -1.856069415808e-01 
  0.000000000000e+00   1.030213199556e-02  -1.835611909628e-01   0.000000000000e+00   1.030213199556e-02  -1.835611909628e-01  -2.470755390823e-02  -2.469103597105e-02  -1.980946362019e-01 
  2.398662827909e-02  -1.773817539215e-01  -1.769816130400e-01  -7.605987787247e-02  -2.002978324890e-01  -1.895021200180e-01   1.556147728115e-02  -8.032283931971e-02  -1.404638886452e-01 
  5.373167991638e-02  -2.247091196477e-02  -1.387607604265e-01   1.053724321537e-03  -2.325972914696e-02  -1.390921026468e-01  -4.981024935842e-02   1.444353605621e-03  -1.499342173338e-01 
 -4.981024935842e-02   1.444353605621e-03  -1.499342173338e-01   0.000000000000e+00   1.417073886842e-02  -1.955246478319e-01   0.000000000000e+00   1.417073886842e-02  -1.955246478319e-01 
  1.293470431119e-02   4.729483276606e-02  -1.685509532690e-01   1.416952628642e-02   5.527814477682e-02  -1.468488574028e-01   2.740753628314e-02  -6.373400241137e-02  -1.510792970657e-01 
 -5.549577251077e-02  -1.256256103516e-01  -1.549681276083e-01  -1.339853107929e-01  -8.333148062229e-02  -1.843752115965e-01   2.330752834678e-02   1.661842316389e-02  -1.376179307699e-01 
 -3.719711303711e-02  -5.180884152651e-02  -1.451441943645e-01  -3.719711303711e-02  -5.180884152651e-02  -1.451441943645e-01   0.000000000000e+00  -3.775614500046e-02  -2.350625842810e-01 
  0.000000000000e+00  -3.775614500046e-02  -2.350625842810e-01  -5.036272481084e-02  -6.366588175297e-02  -2.249736338854e-01   1.325667649508e-01  -6.460259854794e-02  -1.670098304749e-01 
  1.265443265438e-01  -4.584516212344e-02  -1.501772999763e-01  -5.416030436754e-02   1.500108186156e-02  -1.388680636883e-01  -8.367190510035e-02   4.389752820134e-02  -1.513078361750e-01 
 -2.035249769688e-02   2.820223942399e-02  -1.561208069324e-01  -1.737067252398e-01  -4.564189910889e-02  -2.238152623177e-01  -1.737067252398e-01  -4.564189910889e-02  -2.238152623177e-01 
  0.000000000000e+00  -4.590942058712e-03  -1.884842962027e-01   0.000000000000e+00  -4.590942058712e-03  -1.884842962027e-01   3.302721772343e-03  -2.539112605155e-02  -1.951517015696e-01 
  8.882073312998e-02  -7.151590287685e-02  -2.081784009933e-01   1.415779814124e-02  -2.319856360555e-02  -1.930415332317e-01   1.586750522256e-02   1.115397922695e-02  -1.447082161903e-01 
  6.371607631445e-02  -7.298514991999e-02  -1.468988656998e-01  -3.763252124190e-02  -6.231098994613e-02  -1.486447602510e-01  -8.359745889902e-02  -1.771991141140e-02  -1.633869856596e-01 
 -8.359745889902e-02  -1.771991141140e-02  -1.633869856596e-01   0.000000000000e+00   6.385260820389e-02  -1.857106536627e-01   0.000000000000e+00   6.385260820389e-02  -1.857106536627e-01 
 -3.409858420491e-02  -4.082207381725e-02  -1.777047365904e-01  -2.277485281229e-02   3.734855353832e-02  -1.758366525173e-01   3.320611640811e-02   2.001635730267e-02  -1.613387018442e-01 
 -2.551336947363e-04   3.232887387276e-02  -1.641097068787e-01  -1.206145342439e-02  -2.638970129192e-02  -1.874151676893e-01   2.872805856168e-02  -3.955549094826e-03  -1.507305502892e-01 
  4.420791566372e-02  -1.161144003272e-01  -1.597690880299e-01   4.420791566372e-02  -1.161144003272e-01  -1.597690880299e-01   0.000000000000e+00   1.016942709684e-01  -2.363030165434e-01 
  0.000000000000e+00   1.016942709684e-01  -2.363030165434e-01  -3.444967418909e-02  -1.421303488314e-02  -2.379273027182e-01   7.447678595781e-02   1.368235517293e-02  -1.778025478125e-01 
  7.571332156658e-02  -6.612759828568e-02  -1.465518921614e-01  -3.940135240555e-02   8.794763125479e-03  -1.407965123653e-01   3.289946913719e-02   8.661918342113e-02  -1.466863900423e-01 
  6.795527786016e-02   6.113410741091e-02  -1.596276313066e-01   2.786725200713e-02  -7.802532613277e-02  -2.009779214859e-01   2.786725200713e-02  -7.802532613277e-02  -2.009779214859e-01 
  0.000000000000e+00   0.000000000000e+00  -1.829031705856e-01   0.000000000000e+00   0.000000000000e+00  -1.829031705856e-01   9.510315954685e-03   0.000000000000e+00  -1.885755956173e-01 
 -9.887411445379e-02   0.000000000000e+00  -1.827123016119e-01   1.177393496037e-01   0.000000000000e+00  -2.000206261873e-01   2.109029702842e-02   0.000000000000e+00  -1.381044238806e-01 
  1.432277560234e-01   0.000000000000e+00  -1.278122812510e-01   1.264850348234e-01   0.000000000000e+00  -1.299452334642e-01   9.045097231865e-02   0.000000000000e+00  -1.372280865908e-01 
  9.045097231865e-02   0.000000000000e+00  -1.372280865908e-01   0.000000000000e+00   0.000000000000e+00  -1.829031705856e-01   0.000000000000e+00   0.000000000000e+00  -1.829031705856e-01 
  9.510315954685e-03   0.000000000000e+00  -1.885755956173e-01  -9.887411445379e-02   0.000000000000e+00  -1.827123016119e-01   1.177393496037e-01   0.000000000000e+00  -2.000206261873e-01 
  2.109029702842e-02   0.000000000000e+00  -1.381044238806e-01   1.432277560234e-01   0.000000000000e+00  -1.278122812510e-01   1.264850348234e-01   0.000000000000e+00  -1.299452334642e-01 
  9.045097231865e-02   0.000000000000e+00  -1.372280865908e-01   9.045097231865e-02   0.000000000000e+00  -1.372280865908e-01   0.000000000000e+00  -5.772449821234e-02  -4.609485864639e-01 
  0.000000000000e+00  -5.772449821234e-02  -4.609485864639e-01   3.210808634758e-01  -1.361359748989e-02  -4.397835135460e-01   5.760109424591e-01  -3.513135761023e-02  -5.471861958504e-01 
  1.440472155809e-01  -3.715653717518e-02  -6.176132559776e-01   0.000000000000e+00   1.389782726765e-01  -6.373001635075e-02  -7.690097391605e-02   3.492093980312e-01  -3.994151651859e-01 
 -4.805249720812e-02   1.483103483915e-01  -3.788660168648e-01   7.015316486359e-01   6.697322726250e-01  -1.439306326210e-02   7.015316486359e-01   6.697322726250e-01  -1.439306326210e-02 
  0.000000000000e+00  -5.772449821234e-02  -4.609485864639e-01   0.000000000000e+00  -5.772449821234e-02  -4.609485864639e-01   3.210808634758e-01  -1.361359748989e-02  -4.397835135460e-01 
  5.760109424591e-01  -3.513135761023e-02  -5.471861958504e-01   1.440472155809e-01  -3.715653717518e-02  -6.176132559776e-01   0.000000000000e+00   1.389782726765e-01  -6.373001635075e-02 
 -7.690097391605e-02   3.492093980312e-01  -3.994151651859e-01  -4.805249720812e-02   1.483103483915e-01  -3.788660168648e-01   7.015316486359e-01   6.697322726250e-01  -1.439306326210e-02 
  7.015316486359e-01   6.697322726250e-01  -1.439306326210e-02   0.000000000000e+00  -1.924999058247e-03  -5.897561907768e-01   0.000000000000e+00  -1.924999058247e-03  -5.897561907768e-01 
  2.541776299477e-01  -5.728617683053e-02  -5.921744108200e-01   4.194437563419e-01  -1.157206818461e-01  -6.948619484901e-01   1.785271912813e-01  -1.639021933079e-01  -7.563937902451e-01 
  2.406214550138e-02   9.444531798363e-02  -5.581972599030e-01   3.157967468724e-03   3.780231177807e-01  -6.123924627900e-02  -1.145285670646e-03   1.266073137522e-01  -3.549855649471e-01 
 -1.454959809780e-01   5.976797342300e-01  -3.722950220108e-01  -1.454959809780e-01   5.976797342300e-01  -3.722950220108e-01   0.000000000000e+00   8.764036744833e-02  -8.522699475288e-01 
  0.000000000000e+00   8.764036744833e-02  -8.522699475288e-01   3.350306749344e-01  -1.320599615574e-01  -7.035327553749e-01   4.866900146008e-01  -9.911756217480e-02  -6.384795308113e-01 
  4.539668560028e-01  -7.006188482046e-02  -6.819360852242e-01   6.564878672361e-02  -1.971525102854e-01  -5.137399435043e-01  -1.342422515154e-01  -7.235624790192e-01  -1.562479324639e-02 
 -2.194397300482e-01   5.414246767759e-02  -3.281365334988e-02  -5.283151268959e-01   3.151975572109e-02  -2.168576866388e-01  -5.283151268959e-01   3.151975572109e-02  -2.168576866388e-01 
  0.000000000000e+00  -4.320796288084e-04  -7.876197099686e-01   0.000000000000e+00  -4.320796288084e-04  -7.876197099686e-01   4.591639935970e-01  -2.843088656664e-02  -6.991685628891e-01 
  5.618152022362e-01   1.796451280825e-03  -5.062227845192e-01   5.355142354965e-01  -2.207663282752e-02  -6.200203299522e-01   1.082543060184e-01   1.919892057776e-02  -6.092168688774e-01 
 -1.143530011177e-01   5.476159974933e-02  -7.184327840805e-01  -4.722695946693e-01   2.282275706530e-01   5.495102405548e-01  -1.019433140755e+00   3.000288009644e-01  -2.136926501989e-01 
 -1.019433140755e+00   3.000288009644e-01  -2.136926501989e-01   0.000000000000e+00  -8.292328566313e-02  -1.114090681076e+00   0.000000000000e+00  -8.292328566313e-02  -1.114090681076e+00 
  3.310564160347e-01  -9.302649414167e-05  -7.165895700455e-01   3.937671482563e-01  -3.278771042824e-02  -9.877651929855e-01   7.351350784302e-01  -4.336370155215e-02  -3.281363844872e-01 
  7.363247871399e-01  -4.200010001659e-02  -7.103593945503e-01   1.361906826496e-01  -1.223992034793e-01  -1.833351678215e-03   9.842815399170e-01   2.033582478762e-01  -5.485344305634e-02 
 -2.936685644090e-02   4.295714795589e-01  -2.984058558941e-01  -2.936685644090e-02   4.295714795589e-01  -2.984058558941e-01   0.000000000000e+00   1.490818262100e-01  -9.358761906624e-01 
  0.000000000000e+00   1.490818262100e-01  -9.358761906624e-01   2.461433559656e-01   5.785342678428e-02  -4.240483641624e-01   3.362875580788e-01  -2.653589844704e-02  -1.017396211624e+00 
  9.090264439583e-01  -1.131768971682e-01  -6.166887879372e-01   9.000087380409e-01  -4.717783629894e-02  -2.694636881351e-01   6.093002483249e-02  -1.266845464706e-01   8.104772865772e-02 
  3.215880393982e-01  -8.272197842598e-02  -2.853267490864e-01  -1.721237003803e-01  -3.522028028965e-02  -3.256168365479e-01  -1.721237003803e-01  -3.522028028965e-02  -3.256168365479e-01 
  0.000000000000e+00   6.539569795132e-02  -1.020871996880e+00   0.000000000000e+00   6.539569795132e-02  -1.020871996880e+00   3.175516724586e-01   4.937355220318e-02  -1.317674040794e+00 
  4.263838827610e-01   1.896088123322e-01  -1.047148108482e+00   1.310488939285e+00  -1.141428723931e-01  -5.286789536476e-01   5.200169682503e-01   4.288950469345e-03  -3.563221216202e+00 
  6.452244520187e-02   1.985982246697e-02  -1.482851266861e+00   1.947716623545e-01   3.550149798393e-01  -3.165091276169e-01  -7.212822139263e-02   4.409208893776e-01  -1.497723162174e-01 
 -7.212822139263e-02   4.409208893776e-01  -1.497723162174e-01   0.000000000000e+00   0.000000000000e+00  -9.334281086922e-01   0.000000000000e+00   0.000000000000e+00  -9.334281086922e-01 
  2.268992960453e-01   0.000000000000e+00  -1.167301654816e+00   5.543278455734e-01   0.000000000000e+00  -7.817498445511e-01   1.290816187859e+00  -1.500752661377e-02  -4.654856920242e-01 
  1.293915271759e+00   1.845938240876e-04  -5.521993160248e+00   1.328435540199e-01   0.000000000000e+00  -7.446922302246e+00   1.409156620502e-01   8.388715237379e-02  -7.005476951599e-02 
  5.609394609928e-02   1.041861101985e-01  -6.277190893888e-02   5.609394609928e-02   1.041861101985e-01  -6.277190893888e-02   0.000000000000e+00   0.000000000000e+00  -9.334281086922e-01 
  0.000000000000e+00   0.000000000000e+00  -9.334281086922e-01   2.268992960453e-01   0.000000000000e+00  -1.167301654816e+00   5.543278455734e-01   0.000000000000e+00  -7.817498445511e-01 
  1.290816187859e+00  -1.500752661377e-02  -4.654856920242e-01   1.293915271759e+00   1.845938240876e-04  -5.521993160248e+00   1.328435540199e-01   0.000000000000e+00  -7.446922302246e+00 
  1.409156620502e-01   8.388715237379e-02  -7.005476951599e-02   5.609394609928e-02   1.041861101985e-01  -6.277190893888e-02   5.609394609928e-02   1.041861101985e-01  -6.277190893888e-02 
  0.000000000000e+00  -2.522687194869e-03  -6.958003044128e-01   0.000000000000e+00  -2.522687194869e-03  -6.958003044128e-01   2.525538206100e-01   5.300979688764e-02  -5.917940735817e-01 
  2.743085324764e-01   1.955759525299e-02  -5.713277459145e-01   2.225915342569e-01  -3.195822238922e-02  -5.134286284447e-01   0.000000000000e+00   2.169746607542e-01  -1.000000014901e-01 
 -6.247673556209e-02   3.717886507511e-01  -4.333620071411e-01  -6.247673556209e-02   6.417098045349e-01  -4.477862417698e-01   7.888417840004e-01   9.149227738380e-01   1.418919265270e-01 
  7.888417840004e-01   9.149227738380e-01   1.418919265270e-01   0.000000000000e+00  -2.522687194869e-03  -6.958003044128e-01   0.000000000000e+00  -2.522687194869e-03  -6.958003044128e-01 
  2.525538206100e-01   5.300979688764e-02  -5.917940735817e-01   2.743085324764e-01   1.955759525299e-02  -5.713277459145e-01   2.225915342569e-01  -3.195822238922e-02  -5.134286284447e-01 
  0.000000000000e+00   2.169746607542e-01  -1.000000014901e-01  -6.247673556209e-02   3.717886507511e-01  -4.333620071411e-01  -6.247673556209e-02   6.417098045349e-01  -4.477862417698e-01 
  7.888417840004e-01   9.149227738380e-01   1.418919265270e-01   7.888417840004e-01   9.149227738380e-01   1.418919265270e-01   0.000000000000e+00   7.259231805801e-02  -2.666170001030e-01 
  0.000000000000e+00   7.259231805801e-02  -2.666170001030e-01   1.567137092352e-01   2.216698415577e-02  -3.480504751205e-01   2.499023824930e-01  -1.291335653514e-02  -4.467616975307e-01 
  2.513847351074e-01  -9.258344769478e-02  -6.036885380745e-01   9.744364023209e-02   1.927875578403e-01  -4.523577690125e-01  -2.149492129683e-02   3.776945173740e-01  -1.000000014901e-01 
 -3.509765490890e-02   5.582716464996e-01  -1.478078365326e-01   5.644384622574e-01   7.403025031090e-01  -1.000000014901e-01   5.644384622574e-01   7.403025031090e-01  -1.000000014901e-01 
  0.000000000000e+00   1.892040371895e-01  -3.680280447006e-01   0.000000000000e+00   1.892040371895e-01  -3.680280447006e-01   1.684484928846e-01  -3.648787364364e-02  -3.247305452824e-01 
  2.922536432743e-01  -5.655431374907e-02  -4.206590354443e-01   3.964446485043e-01  -5.756584927440e-02  -5.006840229034e-01   2.367501258850e-01  -2.700966298580e-01  -3.616065382957e-01 
  1.834986656904e-01  -5.841210484505e-01   6.256667524576e-02   9.221962536685e-04   4.021117463708e-02   7.969167828560e-01  -8.316079378128e-01   0.000000000000e+00  -2.009071707726e-01 
 -8.316079378128e-01   0.000000000000e+00  -2.009071707726e-01   0.000000000000e+00  -8.713783696294e-03  -2.637808918953e-01   0.000000000000e+00  -8.713783696294e-03  -2.637808918953e-01 
  2.365745157003e-01  -6.293211132288e-02  -1.686875373125e-01   3.645717799664e-01  -2.899947389960e-02  -3.643257319927e-01   4.993922114372e-01  -2.802288718522e-02  -2.171157300472e-01 
  3.831416070461e-01  -1.766192167997e-02   1.103665977716e-01   7.457792758942e-01  -3.012212552130e-02  -3.963401541114e-02   3.909307122231e-01   4.207604229450e-01   6.956665515900e-01 
 -1.297873973846e+00   3.141317069530e-01  -1.805908828974e-01  -1.297873973846e+00   3.141317069530e-01  -1.805908828974e-01   0.000000000000e+00  -4.881862550974e-02  -3.894008994102e-01 
  0.000000000000e+00  -4.881862550974e-02  -3.894008994102e-01   2.566990852356e-01  -1.906169392169e-02  -3.374395966530e-01   3.614954948425e-01  -1.285870466381e-02  -4.449064731598e-01 
  5.414016842842e-01  -3.282108157873e-02   9.621512889862e-02   4.406104385853e-01  -9.166865050793e-02   1.424720525742e+00   1.574881911278e+00  -1.032150238752e-01   3.014190681279e-02 
  1.519173860550e+00   6.385540217161e-02  -8.061242848635e-02   5.983921885490e-01   3.374051749706e-01  -1.589258313179e-01   5.983921885490e-01   3.374051749706e-01  -1.589258313179e-01 
  0.000000000000e+00   5.583396926522e-02  -3.098859190941e-01   0.000000000000e+00   5.583396926522e-02  -3.098859190941e-01   2.570423781872e-01  -1.953397691250e-02   4.382086172700e-02 
  2.675139904022e-01  -1.001785844564e-01  -5.867735743523e-01   6.846791505814e-01   9.388513863087e-02  -4.970219135284e-01   6.911787986755e-01  -1.141960546374e-01   1.225086227059e-01 
  7.229566574097e-01  -1.627342700958e-01   1.232135146856e-01   6.944835782051e-01  -1.161753833294e-01  -4.208890795708e-01   0.000000000000e+00   4.498336836696e-02  -2.171475440264e-02 
  0.000000000000e+00   4.498336836696e-02  -2.171475440264e-02   0.000000000000e+00   6.702063977718e-02  -5.796034932137e-01   0.000000000000e+00   6.702063977718e-02  -5.796034932137e-01 
  2.961075305939e-01   1.133838742971e-01  -1.467999964952e-01   4.143000021577e-02   5.770742148161e-02  -4.693737626076e-01   6.906449198723e-01  -1.919691078365e-02  -1.041863679886e+00 
  1.091967344284e+00   5.412332341075e-02  -2.062484025955e+00  -5.343681573868e-01   8.481333404779e-02   1.871499121189e-01  -4.543122053146e-01   4.022192582488e-02  -3.612272441387e-01 
 -4.845831394196e-01   3.014332950115e-01  -1.332933902740e-01  -4.845831394196e-01   3.014332950115e-01  -1.332933902740e-01   0.000000000000e+00   0.000000000000e+00  -5.084544420242e-01 
  0.000000000000e+00   0.000000000000e+00  -5.084544420242e-01   1.181532889605e-01   0.000000000000e+00  -3.012070357800e-01   2.291783690453e-01   5.239392048679e-04  -6.995362639427e-01 
  1.024904966354e+00   0.000000000000e+00  -2.053445816040e+00   1.495302677155e+00   2.976566925645e-02  -1.868520855904e+00  -4.794640541077e-01   3.037333860993e-02  -3.295121908188e+00 
 -6.401821970940e-01   2.786644361913e-02  -1.000000014901e-01  -4.250426888466e-01   5.901066213846e-02  -8.552444726229e-02  -4.250426888466e-01   5.901066213846e-02  -8.552444726229e-02 
  0.000000000000e+00   0.000000000000e+00  -5.084544420242e-01   0.000000000000e+00   0.000000000000e+00  -5.084544420242e-01   1.181532889605e-01   0.000000000000e+00  -3.012070357800e-01 
  2.291783690453e-01   5.239392048679e-04  -6.995362639427e-01   1.024904966354e+00   0.000000000000e+00  -2.053445816040e+00   1.495302677155e+00   2.976566925645e-02  -1.868520855904e+00 
 -4.794640541077e-01   3.037333860993e-02  -3.295121908188e+00  -6.401821970940e-01   2.786644361913e-02  -1.000000014901e-01  -4.250426888466e-01   5.901066213846e-02  -8.552444726229e-02 
 -4.250426888466e-01   5.901066213846e-02  -8.552444726229e-02   0.000000000000e+00   5.261866003275e-02  -3.612848222256e-01   0.000000000000e+00   5.261866003275e-02  -3.612848222256e-01 
  1.084856539965e-01   1.247941982001e-02  -3.839045763016e-01   1.042046099901e-01  -6.686703860760e-02  -5.492100119591e-01   2.623246749863e-03  -6.748637557030e-02  -4.728791415691e-01 
  1.247928594239e-03   2.540137171745e-01  -1.000000014901e-01   0.000000000000e+00   3.656788766384e-01  -1.000000014901e-01   0.000000000000e+00   3.490176796913e-01  -1.000000014901e-01 
  0.000000000000e+00   4.761094227433e-02  -3.272835910320e-02   0.000000000000e+00   4.761094227433e-02  -3.272835910320e-02   0.000000000000e+00   5.261866003275e-02  -3.612848222256e-01 
  0.000000000000e+00   5.261866003275e-02  -3.612848222256e-01   1.084856539965e-01   1.247941982001e-02  -3.839045763016e-01   1.042046099901e-01  -6.686703860760e-02  -5.492100119591e-01 
  2.623246749863e-03  -6.748637557030e-02  -4.728791415691e-01   1.247928594239e-03   2.540137171745e-01  -1.000000014901e-01   0.000000000000e+00   3.656788766384e-01  -1.000000014901e-01 
  0.000000000000e+00   3.490176796913e-01  -1.000000014901e-01   0.000000000000e+00   4.761094227433e-02  -3.272835910320e-02   0.000000000000e+00   4.761094227433e-02  -3.272835910320e-02 
  0.000000000000e+00  -5.888949707150e-02  -4.418827593327e-01   0.000000000000e+00  -5.888949707150e-02  -4.418827593327e-01   8.956395834684e-02  -2.856467291713e-02  -2.190319895744e-01 
 -1.790062338114e-01  -1.720380038023e-01  -9.923704862595e-01   0.000000000000e+00  -1.111070960760e-01  -1.000000014901e-01   0.000000000000e+00   1.791416257620e-01  -2.932205796242e-01 
  0.000000000000e+00   3.673348724842e-01  -1.058676093817e-01   2.025656402111e-02   3.298574686050e-01  -1.889781653881e-01   2.911934852600e-01   4.761094227433e-02  -1.000000014901e-01 
  2.911934852600e-01   4.761094227433e-02  -1.000000014901e-01   0.000000000000e+00   9.367366880178e-02  -3.300750553608e-01   0.000000000000e+00   9.367366880178e-02  -3.300750553608e-01 
 -2.914221584797e-02  -1.983230262995e-01  -1.549432575703e-01   5.608410108835e-03  -2.024729996920e-01  -2.690814733505e-01   4.658295959234e-02  -1.261032074690e-01  -2.068291753531e-01 
  9.990154951811e-02  -9.836102835834e-03  -2.901642769575e-02   4.574754238129e-01  -4.963751435280e-01   1.995062083006e-01   1.684396564960e-01   7.362688332796e-02   6.735097169876e-01 
 -8.742089271545e-01   0.000000000000e+00  -1.000000014901e-01  -8.742089271545e-01   0.000000000000e+00  -1.000000014901e-01   0.000000000000e+00   7.108695805073e-02  -1.929185092449e-01 
  0.000000000000e+00   7.108695805073e-02  -1.929185092449e-01   3.558876225725e-03   4.077420104295e-03   1.406194269657e-01   2.201874107122e-01   2.562010893598e-03  -2.281475961208e-01 
  2.564297616482e-01  -1.761059276760e-02   3.515406250954e-01   2.236609458923e-01  -2.151933498681e-02   5.860086083412e-01   9.300253391266e-01   0.000000000000e+00   3.305875062943e-01 
  7.041422724724e-01   2.536049485207e-01   5.266739130020e-01  -9.582515954971e-01   2.979072034359e-01  -1.000000014901e-01  -9.582515954971e-01   2.979072034359e-01  -1.000000014901e-01 
  0.000000000000e+00   1.373114809394e-02  -4.216745495796e-01   0.000000000000e+00   1.373114809394e-02  -4.216745495796e-01   9.115392714739e-02  -1.006216742098e-02  -4.337275326252e-01 
  3.093698322773e-01  -2.022505924106e-02  -4.839584529400e-01   0.000000000000e+00  -7.637220434844e-03   1.125469207764e+00   0.000000000000e+00  -4.846311360598e-02   1.450604557991e+00 
  1.340855360031e+00   0.000000000000e+00   3.027334809303e-01   1.106145739555e+00   2.899994887412e-02  -7.878831773996e-02   4.221535027027e-01   2.554981708527e-01  -2.272334694862e-01 