# vtk DataFile Version 2.0
Written using VisIt writer
ASCII
DATASET RECTILINEAR_GRID
DIMENSIONS 10 10 10
X_COORDINATES 10 float
  0.000000000000e+00   5.000000000000e-01   1.000000000000e+00   1.500000000000e+00   2.000000000000e+00   2.500000000000e+00   3.000000000000e+00   3.500000000000e+00   4.000000000000e+00 
  4.500000000000e+00 
Y_COORDINATES 10 float
  0.000000000000e+00   5.000000000000e-01   1.000000000000e+00   1.500000000000e+00   2.000000000000e+00   2.500000000000e+00   3.000000000000e+00   3.500000000000e+00   4.000000000000e+00 
  4.500000000000e+00 
Z_COORDINATES 10 float
  0.000000000000e+00   5.000000000000e-01   1.000000000000e+00   1.500000000000e+00   2.000000000000e+00   2.500000000000e+00   3.000000000000e+00   3.500000000000e+00   4.000000000000e+00 
  4.500000000000e+00 
CELL_DATA 729
POINT_DATA 1000
VECTORS velocity float
  0.000000000000e+00  -1.160593405366e-01  -2.512866854668e-01   1.750000000000e+00   0.000000000000e+00   1.750000000000e+00   1.041000773327e+26   8.913382887840e-01   4.022240170200e-28 
  4.922401532531e-02  -9.763337671757e-02  -2.224912792444e-01   0.000000000000e+00   1.750000000000e+00   0.000000000000e+00   1.750000000000e+00   0.000000000000e+00   1.750000000000e+00 
 -4.636253416538e-02  -1.090490743518e-01  -2.461297661066e-01  -1.485898613930e+00   2.807464093286e+13  -1.592949271202e+00   0.000000000000e+00   1.750000000000e+00   0.000000000000e+00 
 -3.463608399034e-02  -1.371462345123e-01  -2.718461751938e-01   0.000000000000e+00  -1.160593405366e-01  -2.512866854668e-01  -1.484089136124e+00  -7.604200061044e-35  -1.627651214600e+00 
 -5.512458272278e-03  -1.269893497229e-01  -2.540298998356e-01   4.922401532531e-02  -9.763337671757e-02  -2.224912792444e-01   1.041000773327e+26   8.913382887840e-01   4.022240170200e-28 
  4.721834324300e-03  -8.132804185152e-02  -2.178897112608e-01  -4.636253416538e-02  -1.090490743518e-01  -2.461297661066e-01   1.750000000000e+00   0.000000000000e+00   1.750000000000e+00 
 -3.463608399034e-02  -1.371462345123e-01  -2.718461751938e-01  -3.463608399034e-02  -1.371462345123e-01  -2.718461751938e-01   0.000000000000e+00   5.310893431306e-02  -2.246387302876e-01 
  0.000000000000e+00   5.310893431306e-02  -2.246387302876e-01  -3.921279311180e-02   1.845986396074e-02  -2.459701597691e-01  -2.955610398203e-03  -3.329361602664e-02  -2.432039678097e-01 
 -1.379252597690e-02  -5.167930200696e-02  -2.530292868614e-01   4.994385316968e-02  -4.852215759456e-03  -2.207588553429e-01  -1.000086218119e-02   3.150241822004e-02  -2.264347821474e-01 
  1.098382659256e-02   5.916494503617e-02  -2.260632216930e-01  -2.401611208916e-02   6.713520735502e-02  -2.416800856590e-01  -2.401611208916e-02   6.713520735502e-02  -2.416800856590e-01 
  0.000000000000e+00   5.906447768211e-03  -2.171541899443e-01   0.000000000000e+00   5.906447768211e-03  -2.171541899443e-01  -1.693833991885e-02   2.665910683572e-02  -2.240575999022e-01 
  1.664838008583e-02   4.320744425058e-02  -2.208729684353e-01  -1.956517621875e-02   3.484821319580e-02  -2.345358282328e-01  -1.218404062092e-02  -2.560268156230e-02  -2.347544878721e-01 
 -4.970318451524e-02  -6.076603010297e-02  -2.662100195885e-01   5.950790271163e-02  -9.000152349472e-03  -2.273448705673e-01  -1.221427414566e-02   2.374213887379e-03  -2.310661971569e-01 
 -1.221427414566e-02   2.374213887379e-03  -2.310661971569e-01   0.000000000000e+00  -2.958149276674e-02  -2.337979972363e-01   0.000000000000e+00  -2.958149276674e-02  -2.337979972363e-01 
 -5.659987777472e-02  -6.820201128721e-02  -2.694512307644e-01   7.022707909346e-02  -1.203695777804e-02  -2.240289598703e-01   6.056158454157e-04   6.411965936422e-03  -2.241684645414e-01 
  1.582842133939e-02   3.112699836493e-02  -2.203042954206e-01  -2.663606032729e-02   5.063989385962e-02  -2.388329207897e-01  -2.056098729372e-02  -2.897570841014e-02  -2.436735481024e-01 
 -5.888304859400e-02  -6.978166103363e-02  -2.720323204994e-01  -5.888304859400e-02  -6.978166103363e-02  -2.720323204994e-01   0.000000000000e+00   3.470128402114e-02  -2.180515080690e-01 
  0.000000000000e+00   3.470128402114e-02  -2.180515080690e-01  -3.138903900981e-02   5.825252458453e-02  -2.370658367872e-01  -1.821027509868e-02  -2.947833389044e-02  -2.405550777912e-01 
 -3.966660052538e-02  -6.499867886305e-02  -2.653771340847e-01   6.373263150454e-02  -1.356320083141e-02  -2.243866175413e-01   1.729021430947e-03   1.414527557790e-02  -2.253101319075e-01 
  1.113263610750e-02   4.131174832582e-02  -2.235397100449e-01  -2.650721743703e-02   6.724694371223e-02  -2.406233549118e-01  -2.650721743703e-02   6.724694371223e-02  -2.406233549118e-01 
  0.000000000000e+00  -9.953316301107e-03  -2.174815386534e-01   0.000000000000e+00  -9.953316301107e-03  -2.174815386534e-01  -9.658910334110e-03   1.225894037634e-02  -2.227313369513e-01 
  1.427963934839e-02   4.000303521752e-02  -2.210710197687e-01  -2.652251161635e-02   4.921565949917e-02  -2.388190925121e-01  -2.045797742903e-02  -3.400424122810e-02  -2.451828867197e-01 
 -2.692678570747e-02  -5.760969594121e-02  -2.618113458157e-01   4.957352951169e-02  -1.599365659058e-02  -2.274059653282e-01  -1.699762977660e-02  -5.318592768162e-03  -2.320731282234e-01 
 -1.699762977660e-02  -5.318592768162e-03  -2.320731282234e-01   0.000000000000e+00  -5.487583577633e-02  -2.473474889994e-01   0.000000000000e+00  -5.487583577633e-02  -2.473474889994e-01 
 -3.245992586017e-02  -7.273644953966e-02  -2.680702209473e-01   7.114453613758e-02  -3.567126113921e-03  -2.245190888643e-01   1.647179131396e-03   2.323982492089e-02  -2.249056696892e-01 
  1.878587156534e-02   4.675347730517e-02  -2.210358828306e-01  -2.592232450843e-02   4.043038561940e-02  -2.378799021244e-01  -3.415674716234e-02  -4.593655839562e-02  -2.497798651457e-01 
 -6.585817784071e-02  -9.485207498074e-02  -2.836152613163e-01  -6.585817784071e-02  -9.485207498074e-02  -2.836152613163e-01   0.000000000000e+00   0.000000000000e+00  -2.262436002493e-01 
  0.000000000000e+00   0.000000000000e+00  -2.262436002493e-01  -4.057526215911e-02   0.000000000000e+00  -2.470656335354e-01  -5.189079791307e-03   0.000000000000e+00  -2.386554777622e-01 
 -3.422368317842e-02   0.000000000000e+00  -2.607058584690e-01   9.349452704191e-02   0.000000000000e+00  -2.182005643845e-01   1.008693221956e-02   0.000000000000e+00  -2.195444107056e-01 
 -3.575133159757e-03   0.000000000000e+00  -2.212719917297e-01  -9.816082194448e-03   0.000000000000e+00  -2.301880717278e-01  -9.816082194448e-03   0.000000000000e+00  -2.301880717278e-01 
  0.000000000000e+00   0.000000000000e+00  -2.262436002493e-01   0.000000000000e+00   0.000000000000e+00  -2.262436002493e-01  -4.057526215911e-02   0.000000000000e+00  -2.470656335354e-01 
 -5.189079791307e-03   0.000000000000e+00  -2.386554777622e-01  -3.422368317842e-02   0.000000000000e+00  -2.607058584690e-01   9.349452704191e-02   0.000000000000e+00  -2.182005643845e-01 
  1.008693221956e-02   0.000000000000e+00  -2.195444107056e-01  -3.575133159757e-03   0.000000000000e+00  -2.212719917297e-01  -9.816082194448e-03   0.000000000000e+00  -2.301880717278e-01 
 -9.816082194448e-03   0.000000000000e+00  -2.301880717278e-01   0.000000000000e+00  -1.160593405366e-01  -2.512866854668e-01   0.000000000000e+00  -1.160593405366e-01  -2.512866854668e-01 
 -5.512458272278e-03  -1.269893497229e-01  -2.540298998356e-01   4.922401532531e-02  -9.763337671757e-02  -2.224912792444e-01   7.387740537524e-03  -9.234230965376e-02  -2.187301963568e-01 
  4.721834324300e-03  -8.132804185152e-02  -2.178897112608e-01  -4.636253416538e-02  -1.090490743518e-01  -2.461297661066e-01  -1.771227084100e-02  -1.171142086387e-01  -2.541636228561e-01 
 -3.463608399034e-02  -1.371462345123e-01  -2.718461751938e-01  -3.463608399034e-02  -1.371462345123e-01  -2.718461751938e-01   0.000000000000e+00  -1.160593405366e-01  -2.512866854668e-01 
  0.000000000000e+00  -1.160593405366e-01  -2.512866854668e-01  -5.512458272278e-03  -1.269893497229e-01  -2.540298998356e-01   4.922401532531e-02  -9.763337671757e-02  -2.224912792444e-01 
  7.387740537524e-03  -9.234230965376e-02  -2.187301963568e-01   4.721834324300e-03  -8.132804185152e-02  -2.178897112608e-01  -4.636253416538e-02  -1.090490743518e-01  -2.461297661066e-01 
 -1.771227084100e-02  -1.171142086387e-01  -2.541636228561e-01  -3.463608399034e-02  -1.371462345123e-01  -2.718461751938e-01  -3.463608399034e-02  -1.371462345123e-01  -2.718461751938e-01 
  0.000000000000e+00   5.310893431306e-02  -2.246387302876e-01   0.000000000000e+00   5.310893431306e-02  -2.246387302876e-01  -3.921279311180e-02   1.845986396074e-02  -2.459701597691e-01 
 -2.955610398203e-03  -3.329361602664e-02  -2.432039678097e-01  -1.379252597690e-02  -5.167930200696e-02  -2.530292868614e-01   4.994385316968e-02  -4.852215759456e-03  -2.207588553429e-01 
 -1.000086218119e-02   3.150241822004e-02  -2.264347821474e-01   1.098382659256e-02   5.916494503617e-02  -2.260632216930e-01  -2.401611208916e-02   6.713520735502e-02  -2.416800856590e-01 
 -2.401611208916e-02   6.713520735502e-02  -2.416800856590e-01   0.000000000000e+00   5.906447768211e-03  -2.171541899443e-01   0.000000000000e+00   5.906447768211e-03  -2.171541899443e-01 
 -1.693833991885e-02   2.665910683572e-02  -2.240575999022e-01   1.664838008583e-02   4.320744425058e-02  -2.208729684353e-01  -1.956517621875e-02   3.484821319580e-02  -2.345358282328e-01 
 -1.218404062092e-02  -2.560268156230e-02  -2.347544878721e-01  -4.970318451524e-02  -6.076603010297e-02  -2.662100195885e-01   5.950790271163e-02  -9.000152349472e-03  -2.273448705673e-01 
 -1.221427414566e-02   2.374213887379e-03  -2.310661971569e-01  -1.221427414566e-02   2.374213887379e-03  -2.310661971569e-01   0.000000000000e+00  -2.958149276674e-02  -2.337979972363e-01 
  0.000000000000e+00  -2.958149276674e-02  -2.337979972363e-01  -5.659987777472e-02  -6.820201128721e-02  -2.694512307644e-01   7.022707909346e-02  -1.203695777804e-02  -2.240289598703e-01 
  6.056158454157e-04   6.411965936422e-03  -2.241684645414e-01   1.582842133939e-02   3.112699836493e-02  -2.203042954206e-01  -2.663606032729e-02   5.063989385962e-02  -2.388329207897e-01 
 -2.056098729372e-02  -2.897570841014e-02  -2.436735481024e-01  -5.888304859400e-02  -6.978166103363e-02  -2.720323204994e-01  -5.888304859400e-02  -6.978166103363e-02  -2.720323204994e-01 
  0.000000000000e+00   3.470128402114e-02  -2.180515080690e-01   0.000000000000e+00   3.470128402114e-02  -2.180515080690e-01  -3.138903900981e-02   5.825252458453e-02  -2.370658367872e-01 
 -1.821027509868e-02  -2.947833389044e-02  -2.405550777912e-01  -3.966660052538e-02  -6.499867886305e-02  -2.653771340847e-01   6.373263150454e-02  -1.356320083141e-02  -2.243866175413e-01 
  1.729021430947e-03   1.414527557790e-02  -2.253101319075e-01   1.113263610750e-02   4.131174832582e-02  -2.235397100449e-01  -2.650721743703e-02   6.724694371223e-02  -2.406233549118e-01 
 -2.650721743703e-02   6.724694371223e-02  -2.406233549118e-01   0.000000000000e+00  -9.953316301107e-03  -2.174815386534e-01   0.000000000000e+00  -9.953316301107e-03  -2.174815386534e-01 
 -9.658910334110e-03   1.225894037634e-02  -2.227313369513e-01   1.427963934839e-02   4.000303521752e-02  -2.210710197687e-01  -2.652251161635e-02   4.921565949917e-02  -2.388190925121e-01 
 -2.045797742903e-02  -3.400424122810e-02  -2.451828867197e-01  -2.692678570747e-02  -5.760969594121e-02  -2.618113458157e-01   4.957352951169e-02  -1.599365659058e-02  -2.274059653282e-01 
 -1.699762977660e-02  -5.318592768162e-03  -2.320731282234e-01  -1.699762977660e-02  -5.318592768162e-03  -2.320731282234e-01   0.000000000000e+00  -5.487583577633e-02  -2.473474889994e-01 
  0.000000000000e+00  -5.487583577633e-02  -2.473474889994e-01  -3.245992586017e-02  -7.273644953966e-02  -2.680702209473e-01   7.114453613758e-02  -3.567126113921e-03  -2.245190888643e-01 
  1.647179131396e-03   2.323982492089e-02  -2.249056696892e-01   1.878587156534e-02   4.675347730517e-02  -2.210358828306e-01  -2.592232450843e-02   4.043038561940e-02  -2.378799021244e-01 
 -3.415674716234e-02  -4.593655839562e-02  -2.497798651457e-01  -6.585817784071e-02  -9.485207498074e-02  -2.836152613163e-01  -6.585817784071e-02  -9.485207498074e-02  -2.836152613163e-01 
  0.000000000000e+00   0.000000000000e+00  -2.262436002493e-01   0.000000000000e+00   0.000000000000e+00  -2.262436002493e-01  -4.057526215911e-02   0.000000000000e+00  -2.470656335354e-01 
 -5.189079791307e-03   0.000000000000e+00  -2.386554777622e-01  -3.422368317842e-02   0.000000000000e+00  -2.607058584690e-01   9.349452704191e-02   0.000000000000e+00  -2.182005643845e-01 
  1.008693221956e-02   0.000000000000e+00  -2.195444107056e-01  -3.575133159757e-03   0.000000000000e+00  -2.212719917297e-01  -9.816082194448e-03   0.000000000000e+00  -2.301880717278e-01 
 -9.816082194448e-03   0.000000000000e+00  -2.301880717278e-01   0.000000000000e+00   0.000000000000e+00  -2.262436002493e-01   0.000000000000e+00   0.000000000000e+00  -2.262436002493e-01 
 -4.057526215911e-02   0.000000000000e+00  -2.470656335354e-01  -5.189079791307e-03   0.000000000000e+00  -2.386554777622e-01  -3.422368317842e-02   0.000000000000e+00  -2.607058584690e-01 
  9.349452704191e-02   0.000000000000e+00  -2.182005643845e-01   1.008693221956e-02   0.000000000000e+00  -2.195444107056e-01  -3.575133159757e-03   0.000000000000e+00  -2.212719917297e-01 
 -9.816082194448e-03   0.000000000000e+00  -2.301880717278e-01  -9.816082194448e-03   0.000000000000e+00  -2.301880717278e-01   0.000000000000e+00  -1.052436977625e-01  -1.664785146713e-01 
  0.000000000000e+00  -1.052436977625e-01  -1.664785146713e-01   4.153283371124e-04  -1.057514399290e-01  -1.557352691889e-01   9.393864311278e-03  -9.818160533905e-02  -1.949745416641e-01 
  3.399453824386e-03  -9.594745934010e-02  -2.004333585501e-01  -9.344440768473e-04  -9.586650878191e-02  -2.092641294003e-01  -1.120735239238e-02  -1.036888733506e-01  -1.759870499372e-01 
 -8.444772101939e-03  -1.084930077195e-01  -1.656366288662e-01  -8.789657615125e-03  -1.145174205303e-01  -1.429820954800e-01  -8.789657615125e-03  -1.145174205303e-01  -1.429820954800e-01 
  0.000000000000e+00  -1.052436977625e-01  -1.664785146713e-01   0.000000000000e+00  -1.052436977625e-01  -1.664785146713e-01   4.153283371124e-04  -1.057514399290e-01  -1.557352691889e-01 
  9.393864311278e-03  -9.818160533905e-02  -1.949745416641e-01   3.399453824386e-03  -9.594745934010e-02  -2.004333585501e-01  -9.344440768473e-04  -9.586650878191e-02  -2.092641294003e-01 
 -1.120735239238e-02  -1.036888733506e-01  -1.759870499372e-01  -8.444772101939e-03  -1.084930077195e-01  -1.656366288662e-01  -8.789657615125e-03  -1.145174205303e-01  -1.429820954800e-01 
 -8.789657615125e-03  -1.145174205303e-01  -1.429820954800e-01   0.000000000000e+00   1.319612190127e-02  -2.084511071444e-01   0.000000000000e+00   1.319612190127e-02  -2.084511071444e-01 
 -5.456717219204e-03   7.263768464327e-03  -1.743153184652e-01   1.387514988892e-03  -6.475647096522e-04  -1.692126542330e-01  -7.157908985391e-04  -4.655122291297e-03  -1.506206095219e-01 
  4.138081334531e-03   5.696544540115e-04  -1.977399289608e-01  -4.522102419287e-03   7.458485197276e-03  -1.931797415018e-01  -2.574955113232e-03   1.334109250456e-02  -2.059031277895e-01 
 -5.741850007325e-03   1.606594771147e-02  -1.929426640272e-01  -5.741850007325e-03   1.606594771147e-02  -1.929426640272e-01   0.000000000000e+00   3.859657561406e-03  -2.075282186270e-01 
  0.000000000000e+00   3.859657561406e-03  -2.075282186270e-01  -4.777373280376e-03   4.355072043836e-03  -1.903555393219e-01   1.106852083467e-03   4.024974536151e-03  -2.053152620792e-01 
 -2.549758646637e-03   2.200815826654e-03  -1.931871622801e-01  -1.226641703397e-03  -3.063366748393e-03  -1.863410919905e-01  -8.079999126494e-03  -6.527611520141e-03  -1.364659518003e-01 
  3.097228938714e-03  -7.706022006460e-04  -1.909902840853e-01  -3.084506606683e-03   2.025264082476e-03  -1.906854361296e-01  -3.084506606683e-03   2.025264082476e-03  -1.906854361296e-01 
  0.000000000000e+00  -3.845535218716e-03  -1.853007823229e-01   0.000000000000e+00  -3.845535218716e-03  -1.853007823229e-01  -8.308338001370e-03  -7.479373831302e-03  -1.280898153782e-01 
  6.344953551888e-03  -2.428622217849e-03  -1.888798922300e-01   4.933905438520e-04   6.685219705105e-04  -1.927184164524e-01   6.687791319564e-04   2.632042160258e-03  -2.071017920971e-01 
 -5.990871228278e-03   4.795728251338e-03  -1.915594041348e-01  -3.578012576327e-03  -1.887370948680e-03  -1.778504401445e-01  -8.878487162292e-03  -7.673041429371e-03  -1.320836842060e-01 
 -8.878487162292e-03  -7.673041429371e-03  -1.320836842060e-01   0.000000000000e+00   4.199486225843e-03  -2.129299491644e-01   0.000000000000e+00   4.199486225843e-03  -2.129299491644e-01 
 -7.332883775234e-03   5.212939344347e-03  -1.903195530176e-01  -1.449880655855e-03  -2.573155099526e-03  -1.770410388708e-01  -4.902821965516e-03  -8.022742345929e-03  -1.337953209877e-01 
  6.202551070601e-03  -2.473311265931e-03  -1.891009956598e-01  -6.427571643144e-04   2.920903032646e-03  -1.945966184139e-01  -1.238834927790e-03   5.263254046440e-03  -2.072866111994e-01 
 -6.429059430957e-03   7.658123038709e-03  -1.918575018644e-01  -6.429059430957e-03   7.658123038709e-03  -1.918575018644e-01   0.000000000000e+00  -1.794820069335e-03  -2.019840329885e-01 
  0.000000000000e+00  -1.794820069335e-03  -2.019840329885e-01  -3.681086935103e-03   1.752322306857e-03  -1.915680319071e-01   3.919570590369e-04   3.572104033083e-03  -2.062829434872e-01 
 -4.004108719528e-03   4.423711914569e-03  -1.896872520447e-01  -6.204429664649e-04  -2.401000820100e-03  -1.709749102592e-01  -4.316538106650e-03  -6.113978568465e-03  -1.408226639032e-01 
  2.567551331595e-03  -2.304448047653e-03  -1.887166798115e-01  -4.088135901839e-03   1.448588300264e-04  -1.834477782249e-01  -4.088135901839e-03   1.448588300264e-04  -1.834477782249e-01 
  0.000000000000e+00  -9.538733400404e-03  -1.657173931599e-01   0.000000000000e+00  -9.538733400404e-03  -1.657173931599e-01  -4.737328272313e-03  -1.022627763450e-02  -1.292005330324e-01 
  8.077889680862e-03  -2.924036234617e-03  -1.911192238331e-01   2.113026566803e-03   2.799927722663e-03  -1.938667148352e-01   3.388295182958e-03   6.390838883817e-03  -2.084124088287e-01 
 -4.172936081886e-03   5.949251353741e-03  -1.936163306236e-01  -6.070559844375e-03  -2.705929800868e-03  -1.685725599527e-01  -1.066987495869e-02  -8.960806764662e-03  -1.163488849998e-01 
 -1.066987495869e-02  -8.960806764662e-03  -1.163488849998e-01   0.000000000000e+00   0.000000000000e+00  -2.097033262253e-01   0.000000000000e+00   0.000000000000e+00  -2.097033262253e-01 
 -7.089146412909e-03   0.000000000000e+00  -1.764908730984e-01   2.106489380822e-03   0.000000000000e+00  -1.728975921869e-01  -5.458288360387e-04   0.000000000000e+00  -1.257524341345e-01 
  1.290107797831e-02   0.000000000000e+00  -2.007743269205e-01   2.411193214357e-03   0.000000000000e+00  -2.208818644285e-01  -3.941768314689e-03   0.000000000000e+00  -2.194879502058e-01 
 -6.903435103595e-03   0.000000000000e+00  -2.155203074217e-01  -6.903435103595e-03   0.000000000000e+00  -2.155203074217e-01   0.000000000000e+00   0.000000000000e+00  -2.097033262253e-01 
  0.000000000000e+00   0.000000000000e+00  -2.097033262253e-01  -7.089146412909e-03   0.000000000000e+00  -1.764908730984e-01   2.106489380822e-03   0.000000000000e+00  -1.728975921869e-01 
 -5.458288360387e-04   0.000000000000e+00  -1.257524341345e-01   1.290107797831e-02   0.000000000000e+00  -2.007743269205e-01   2.411193214357e-03   0.000000000000e+00  -2.208818644285e-01 
 -3.941768314689e-03   0.000000000000e+00  -2.194879502058e-01  -6.903435103595e-03   0.000000000000e+00  -2.155203074217e-01  -6.903435103595e-03   0.000000000000e+00  -2.155203074217e-01 
  0.000000000000e+00  -8.846450597048e-02  -1.710870116949e-01   0.000000000000e+00  -8.846450597048e-02  -1.710870116949e-01   1.341561292065e-04  -8.864915370941e-02  -1.703596264124e-01 
  2.724989783019e-03  -8.644152432680e-02  -1.781153976917e-01   1.120808999985e-03  -8.550667762756e-02  -1.809592545033e-01  -7.736245170236e-04  -8.560332655907e-02  -1.821059435606e-01 
 -4.502518568188e-03  -8.863317966461e-02  -1.745973676443e-01  -4.231300670654e-03  -9.133314341307e-02  -1.697880029678e-01  -3.681868081912e-03  -9.387462586164e-02  -1.638679355383e-01 
 -3.681868081912e-03  -9.387462586164e-02  -1.638679355383e-01   0.000000000000e+00  -8.846450597048e-02  -1.710870116949e-01   0.000000000000e+00  -8.846450597048e-02  -1.710870116949e-01 
  1.341561292065e-04  -8.864915370941e-02  -1.703596264124e-01   2.724989783019e-03  -8.644152432680e-02  -1.781153976917e-01   1.120808999985e-03  -8.550667762756e-02  -1.809592545033e-01 
 -7.736245170236e-04  -8.560332655907e-02  -1.821059435606e-01  -4.502518568188e-03  -8.863317966461e-02  -1.745973676443e-01  -4.231300670654e-03  -9.133314341307e-02  -1.697880029678e-01 
 -3.681868081912e-03  -9.387462586164e-02  -1.638679355383e-01  -3.681868081912e-03  -9.387462586164e-02  -1.638679355383e-01   0.000000000000e+00   6.296395324171e-03  -1.798457503319e-01 
  0.000000000000e+00   6.296395324171e-03  -1.798457503319e-01  -1.637683715671e-03   4.506210796535e-03  -1.743906885386e-01   2.474260982126e-04   2.054459648207e-03  -1.745783686638e-01 
 -2.648446825333e-04   7.152946200222e-04  -1.734736412764e-01   2.399482473265e-04   1.794794457965e-03  -1.794260144234e-01  -2.586082555354e-03   3.776719095185e-03  -1.773553043604e-01 
 -1.974134473130e-03   6.052706856281e-03  -1.778245121241e-01  -2.380778081715e-03   7.271382957697e-03  -1.744132339954e-01  -2.380778081715e-03   7.271382957697e-03  -1.744132339954e-01 
  0.000000000000e+00   1.212856499478e-03  -1.818693727255e-01   0.000000000000e+00   1.212856499478e-03  -1.818693727255e-01  -1.910440973006e-03   8.864955161698e-04  -1.778230369091e-01 
  2.205693017459e-04   8.494381909259e-04  -1.796116828918e-01  -7.437682361342e-04   3.869918582495e-04  -1.777228266001e-01  -1.162681728601e-03  -9.830137714744e-04  -1.770778000355e-01 
 -3.274249844253e-03  -1.638889429159e-03  -1.703238338232e-01  -6.650172872469e-04  -3.103873459622e-04  -1.760321259499e-01  -1.652977080084e-03   4.105646221433e-04  -1.747262477875e-01 
 -1.652977080084e-03   4.105646221433e-04  -1.747262477875e-01   0.000000000000e+00  -7.896285969764e-04  -1.777139008045e-01   0.000000000000e+00  -7.896285969764e-04  -1.777139008045e-01 
 -2.754719462246e-03  -1.674105762504e-03  -1.698175966740e-01   9.372400818393e-04  -9.972956031561e-04  -1.770282834768e-01  -1.393387647113e-04  -3.868298372254e-04  -1.778466105461e-01 
 -1.769367227098e-04   6.259105866775e-04  -1.800187379122e-01  -2.282558707520e-03   1.643603667617e-03  -1.762150228024e-01  -2.183741424233e-03   1.254886883544e-04  -1.739569753408e-01 
 -3.212326904759e-03  -1.448520692065e-03  -1.664061397314e-01  -3.212326904759e-03  -1.448520692065e-03  -1.664061397314e-01   0.000000000000e+00   1.165418070741e-03  -1.824450641870e-01 
  0.000000000000e+00   1.165418070741e-03  -1.824450641870e-01  -2.466952195391e-03   1.444064429961e-03  -1.767711639404e-01  -1.045557903126e-03  -5.539101548493e-04  -1.750538945198e-01 
 -1.637670909986e-03  -2.064160304144e-03  -1.699187308550e-01   9.494491969235e-04  -9.304921841249e-04  -1.769780218601e-01  -7.577954092994e-04   6.035080878064e-04  -1.776343137026e-01 
 -1.019434421323e-03   1.769830356352e-03  -1.787239760160e-01  -2.285469323397e-03   2.693301998079e-03  -1.745262742043e-01  -2.285469323397e-03   2.693301998079e-03  -1.745262742043e-01 
  0.000000000000e+00  -1.316025154665e-03  -1.806426197290e-01   0.000000000000e+00  -1.316025154665e-03  -1.806426197290e-01  -1.565612503327e-03  -4.296299593989e-04  -1.778475940228e-01 
  7.673115032958e-05   6.813457002863e-04  -1.793203651905e-01  -9.557647863403e-04   1.348386052996e-03  -1.758670955896e-01  -4.890027921647e-04  -1.028926417348e-04  -1.744413077831e-01 
 -1.705151982605e-03  -1.066893688403e-03  -1.707794666290e-01  -4.509375139605e-04  -5.031496984884e-04  -1.756401509047e-01  -1.911850646138e-03  -1.119471053244e-04  -1.732856035233e-01 
 -1.911850646138e-03  -1.119471053244e-04  -1.732856035233e-01   0.000000000000e+00  -3.142943140119e-03  -1.727726012468e-01   0.000000000000e+00  -3.142943140119e-03  -1.727726012468e-01 
 -1.665299758315e-03  -3.200204810128e-03  -1.679960042238e-01   1.888021943159e-03  -1.479655154981e-03  -1.762534976006e-01   9.133956627920e-04   2.603938628454e-04  -1.774062216282e-01 
  1.501484191976e-03   2.120840596035e-03  -1.805915832520e-01  -1.060154521838e-03   2.630867529660e-03  -1.777691692114e-01  -2.642110921443e-03   4.117909702472e-04  -1.731430143118e-01 
 -3.678763518110e-03  -1.303200144321e-03  -1.640299111605e-01  -3.678763518110e-03  -1.303200144321e-03  -1.640299111605e-01   0.000000000000e+00   0.000000000000e+00  -1.783651262522e-01 
  0.000000000000e+00   0.000000000000e+00  -1.783651262522e-01  -2.338588936254e-03   0.000000000000e+00  -1.719694733620e-01   9.563105413690e-05   0.000000000000e+00  -1.723640561104e-01 
  2.087565080728e-04   0.000000000000e+00  -1.687923371792e-01   4.467659629881e-03   0.000000000000e+00  -1.809341311455e-01   1.425364287570e-03   0.000000000000e+00  -1.844282597303e-01 
 -1.657788292505e-03   0.000000000000e+00  -1.827400922775e-01  -2.494884189218e-03   0.000000000000e+00  -1.787623614073e-01  -2.494884189218e-03   0.000000000000e+00  -1.787623614073e-01 
  0.000000000000e+00   0.000000000000e+00  -1.783651262522e-01   0.000000000000e+00   0.000000000000e+00  -1.783651262522e-01  -2.338588936254e-03   0.000000000000e+00  -1.719694733620e-01 
  9.563105413690e-05   0.000000000000e+00  -1.723640561104e-01   2.087565080728e-04   0.000000000000e+00  -1.687923371792e-01   4.467659629881e-03   0.000000000000e+00  -1.809341311455e-01 
  1.425364287570e-03   0.000000000000e+00  -1.844282597303e-01  -1.657788292505e-03   0.000000000000e+00  -1.827400922775e-01  -2.494884189218e-03   0.000000000000e+00  -1.787623614073e-01 
 -2.494884189218e-03   0.000000000000e+00  -1.787623614073e-01   0.000000000000e+00  -7.289192825556e-02  -1.734397858381e-01   0.000000000000e+00  -7.289192825556e-02  -1.734397858381e-01 
  4.981164238416e-05  -7.292854040861e-02  -1.733124852180e-01   6.718729855493e-04  -7.235556840897e-02  -1.756355464458e-01   1.748294162098e-04  -7.210133969784e-02  -1.768718212843e-01 
 -7.209943141788e-04  -7.239452004433e-02  -1.771833002567e-01  -2.030132571235e-03  -7.370959967375e-02  -1.745152175426e-01  -2.074744319543e-03  -7.507914304733e-02  -1.720724999905e-01 
 -1.601474010386e-03  -7.616692781448e-02  -1.697089970112e-01  -1.601474010386e-03  -7.616692781448e-02  -1.697089970112e-01   0.000000000000e+00  -7.289192825556e-02  -1.734397858381e-01 
  0.000000000000e+00  -7.289192825556e-02  -1.734397858381e-01   4.981164238416e-05  -7.292854040861e-02  -1.733124852180e-01   6.718729855493e-04  -7.235556840897e-02  -1.756355464458e-01 
  1.748294162098e-04  -7.210133969784e-02  -1.768718212843e-01  -7.209943141788e-04  -7.239452004433e-02  -1.771833002567e-01  -2.030132571235e-03  -7.370959967375e-02  -1.745152175426e-01 
 -2.074744319543e-03  -7.507914304733e-02  -1.720724999905e-01  -1.601474010386e-03  -7.616692781448e-02  -1.697089970112e-01  -1.601474010386e-03  -7.616692781448e-02  -1.697089970112e-01 
  0.000000000000e+00   3.422515466809e-03  -1.765262484550e-01   0.000000000000e+00   3.422515466809e-03  -1.765262484550e-01  -4.843383212574e-04   2.883652457967e-03  -1.749897450209e-01 
 -3.905419362127e-05   2.183930715546e-03  -1.750944703817e-01  -2.439816307742e-04   1.786917564459e-03  -1.750562041998e-01  -5.345603567548e-04   2.003253903240e-03  -1.762470602989e-01 
 -1.471154973842e-03   2.590150805190e-03  -1.751177608967e-01  -1.352562918328e-03   3.324742428958e-03  -1.746445596218e-01  -1.150194555521e-03   3.753537079319e-03  -1.733614653349e-01 
 -1.150194555521e-03   3.753537079319e-03  -1.733614653349e-01   0.000000000000e+00   3.432794765104e-04  -1.773437112570e-01   0.000000000000e+00   3.432794765104e-04  -1.773437112570e-01 
 -6.887049530633e-04   1.223867730005e-04  -1.758251488209e-01  -1.891057618195e-04  -3.021381053259e-05  -1.763411909342e-01  -4.371846443973e-04  -2.155093097826e-04  -1.760407537222e-01 
 -7.808441878296e-04  -4.493778105825e-04  -1.756257414818e-01  -1.462936517783e-03  -4.315071564633e-04  -1.735071390867e-01  -9.845872409642e-04  -6.140144250821e-05  -1.740849465132e-01 
 -9.243774111383e-04   1.502858503954e-04  -1.733188778162e-01  -9.243774111383e-04   1.502858503954e-04  -1.733188778162e-01   0.000000000000e+00  -7.129852747312e-05  -1.763739734888e-01 
  0.000000000000e+00  -7.129852747312e-05  -1.763739734888e-01  -8.902701083571e-04  -2.877210790757e-04  -1.740759313107e-01  -1.638230605749e-04  -2.730947744567e-04  -1.753891259432e-01 
 -3.356135566719e-04  -1.699967833702e-04  -1.756454706192e-01  -4.677102551796e-04   1.521342637716e-04  -1.762279868126e-01  -1.123333699070e-03   5.001070676371e-04  -1.750467866659e-01 
 -1.165277208202e-03   3.201484505553e-04  -1.738585233688e-01  -1.204523141496e-03   2.957129436254e-05  -1.714301407337e-01  -1.204523141496e-03   2.957129436254e-05  -1.714301407337e-01 
  0.000000000000e+00   1.893315929919e-04  -1.776882559061e-01   0.000000000000e+00   1.893315929919e-04  -1.776882559061e-01  -8.687023073435e-04   2.043873391813e-04  -1.758314520121e-01 
 -5.488437600434e-04  -1.877387403511e-04  -1.750477999449e-01  -6.088470690884e-04  -4.646375309676e-04  -1.736868619919e-01  -1.775557029760e-04  -1.724800386000e-04  -1.751337796450e-01 
 -6.501639727503e-04   3.028222126886e-04  -1.751933991909e-01  -7.875727606006e-04   6.798210088164e-04  -1.751954108477e-01  -9.555687429383e-04   9.233768796548e-04  -1.737729460001e-01 