# vtk DataFile Version 2.0
Written using VisIt writer
ASCII
DATASET RECTILINEAR_GRID
DIMENSIONS 10 10 10
X_COORDINATES 10 float
  0.000000000000e+00   5.000000000000e-01   1.000000000000e+00   1.500000000000e+00   2.000000000000e+00   2.500000000000e+00   3.000000000000e+00   3.500000000000e+00   4.000000000000e+00 
  4.500000000000e+00 
Y_COORDINATES 10 float
  0.000000000000e+00   5.000000000000e-01   1.000000000000e+00   1.500000000000e+00   2.000000000000e+00   2.500000000000e+00   3.000000000000e+00   3.500000000000e+00   4.000000000000e+00 
  4.500000000000e+00 
Z_COORDINATES 10 float
  0.000000000000e+00   5.000000000000e-01   1.000000000000e+00   1.500000000000e+00   2.000000000000e+00   2.500000000000e+00   3.000000000000e+00   3.500000000000e+00   4.000000000000e+00 
  4.500000000000e+00 
CELL_DATA 729
POINT_DATA 1000
VECTORS velocity float
  0.000000000000e+00  -1.311809271574e-01  -2.545869052410e-01   3.251200000000e+04   0.000000000000e+00   0.000000000000e+00   0.000000000000e+00   0.000000000000e+00   0.000000000000e+00 
  7.597474008799e-02  -9.231814742088e-02  -1.749309897423e-01   0.000000000000e+00   0.000000000000e+00   0.000000000000e+00   0.000000000000e+00   1.431655808000e+09   1.070945600000e+09 
 -7.567988336086e-02  -8.744646608829e-02  -1.641265749931e-01   1.071994176000e+09   0.000000000000e+00   0.000000000000e+00   0.000000000000e+00   0.000000000000e+00   0.000000000000e+00 
  7.669191062450e-02  -2.010600715876e-01  -1.830138415098e-01   0.000000000000e+00  -1.311809271574e-01  -2.545869052410e-01   1.070945600000e+09   0.000000000000e+00   0.000000000000e+00 
  3.552690893412e-02  -1.192505210638e-01  -2.155762314796e-01   7.597474008799e-02  -9.231814742088e-02  -1.749309897423e-01   1.431655808000e+09   1.070945600000e+09   0.000000000000e+00 
  3.241293830797e-03  -6.152983382344e-02  -1.403837949038e-01  -7.567988336086e-02  -8.744646608829e-02  -1.641265749931e-01   0.000000000000e+00   0.000000000000e+00   1.071644672000e+09 
  7.669191062450e-02  -2.010600715876e-01  -1.830138415098e-01   7.669191062450e-02  -2.010600715876e-01  -1.830138415098e-01   0.000000000000e+00   3.108309023082e-02  -1.935350745916e-01 
  0.000000000000e+00   3.108309023082e-02  -1.935350745916e-01  -1.309729274362e-02  -1.526407599449e-01  -2.149367779493e-01   1.256130784750e-01  -2.770833373070e-01  -2.029410004616e-01 
  1.207202151418e-01  -1.456104964018e-01  -1.928595006466e-01   4.113155230880e-02  -3.579629585147e-02  -1.451353579760e-01   2.624109014869e-02  -2.036407776177e-02  -1.435319930315e-01 
  2.254645712674e-02  -2.060802467167e-02  -1.350460797548e-01   1.179797425866e-01   5.344269052148e-02  -1.392827630043e-01   1.179797425866e-01   5.344269052148e-02  -1.392827630043e-01 
  0.000000000000e+00   1.900552026927e-02  -2.013435214758e-01   0.000000000000e+00   1.900552026927e-02  -2.013435214758e-01   9.005460143089e-02   1.288822013885e-02  -1.816013306379e-01 
  5.704646930099e-02  -5.962034221739e-03  -1.584239155054e-01   5.791984125972e-02  -9.963288903236e-02  -1.561716198921e-01   4.652962833643e-02  -1.585021167994e-01  -1.585500389338e-01 
  5.605977773666e-02  -9.765429794788e-02  -1.869002580643e-01   1.350557357073e-01  -7.404017448425e-02  -1.398803740740e-01   1.155912950635e-01  -2.841762080789e-02  -1.395744085312e-01 
  1.155912950635e-01  -2.841762080789e-02  -1.395744085312e-01   0.000000000000e+00   3.932990948670e-04  -2.414073050022e-01   0.000000000000e+00   3.932990948670e-04  -2.414073050022e-01 
 -5.800475552678e-02  -4.261980205774e-02  -2.399321645498e-01   4.033106192946e-02  -1.856334623881e-03  -1.758828312159e-01   3.088784031570e-02  -6.427660584450e-02  -1.505913734436e-01 
 -9.271374903619e-03  -6.812406331301e-02  -1.471104770899e-01   1.263692695647e-02  -2.562624216080e-02  -1.597003042698e-01   9.127529710531e-02  -4.889271035790e-02  -1.614589244127e-01 
  3.251088410616e-02  -1.499515920877e-01  -2.101254463196e-01   3.251088410616e-02  -1.499515920877e-01  -2.101254463196e-01   0.000000000000e+00   6.588650867343e-03  -1.915285736322e-01 
  0.000000000000e+00   6.588650867343e-03  -1.915285736322e-01  -1.961149089038e-02  -3.793959319592e-02  -2.028768956661e-01   1.159470006824e-01  -9.541582316160e-03  -1.977828145027e-01 
  9.309333562851e-02  -3.559519723058e-02  -2.041467279196e-01   1.209232211113e-01   5.159229040146e-02  -1.462213844061e-01   2.185037545860e-02  -3.125265985727e-02  -1.466893255711e-01 
 -3.518397361040e-02   8.869249722920e-04  -1.409624516964e-01  -6.702440977097e-02   5.618127062917e-03  -1.643805354834e-01  -6.702440977097e-02   5.618127062917e-03  -1.643805354834e-01 
  0.000000000000e+00  -1.493535283953e-02  -1.975451856852e-01   0.000000000000e+00  -1.493535283953e-02  -1.975451856852e-01   2.095803804696e-02  -6.062441691756e-02  -1.874323636293e-01 
  6.755077093840e-02   5.024259164929e-02  -1.586236655712e-01   7.601240277290e-02   3.903324529529e-02  -1.573562026024e-01   1.715729534626e-01   6.131771579385e-02  -1.585059016943e-01 
  7.388526201248e-02  -1.581571809947e-02  -1.818607151508e-01   7.186882197857e-02  -1.503039803356e-02  -1.437088549137e-01   8.489816635847e-02   4.878694191575e-02  -1.398763656616e-01 
  8.489816635847e-02   4.878694191575e-02  -1.398763656616e-01   0.000000000000e+00  -1.563117839396e-02  -2.237296700478e-01   0.000000000000e+00  -1.563117839396e-02  -2.237296700478e-01 
  1.301319338381e-02  -5.160583183169e-02  -2.153100371361e-01   1.351226866245e-01   4.846495017409e-02  -1.523629873991e-01   5.948903411627e-02   3.081290796399e-02  -1.480090022087e-01 
  1.461522281170e-01   8.994163945317e-03  -1.369686722755e-01   3.446472063661e-02   2.852299809456e-02  -1.527547687292e-01   8.074942231178e-02   3.425715025514e-03  -1.596204042435e-01 
  1.821528822184e-01  -9.612245112658e-02  -1.933824121952e-01   1.821528822184e-01  -9.612245112658e-02  -1.933824121952e-01   0.000000000000e+00   0.000000000000e+00  -1.885945051908e-01 
  0.000000000000e+00   0.000000000000e+00  -1.885945051908e-01  -1.519531069789e-04   0.000000000000e+00  -1.724033355713e-01   4.164715856314e-02   0.000000000000e+00  -1.584035307169e-01 
 -8.076369017363e-02   0.000000000000e+00  -1.896837502718e-01   2.038326859474e-01   0.000000000000e+00  -1.435770988464e-01   1.596113890409e-01   0.000000000000e+00  -1.290614902973e-01 
  1.332792043686e-01   0.000000000000e+00  -1.274872571230e-01   3.296739161015e-01   0.000000000000e+00  -1.237095072865e-01   3.296739161015e-01   0.000000000000e+00  -1.237095072865e-01 
  0.000000000000e+00   0.000000000000e+00  -1.885945051908e-01   0.000000000000e+00   0.000000000000e+00  -1.885945051908e-01  -1.519531069789e-04   0.000000000000e+00  -1.724033355713e-01 
  4.164715856314e-02   0.000000000000e+00  -1.584035307169e-01  -8.076369017363e-02   0.000000000000e+00  -1.896837502718e-01   2.038326859474e-01   0.000000000000e+00  -1.435770988464e-01 
  1.596113890409e-01   0.000000000000e+00  -1.290614902973e-01   1.332792043686e-01   0.000000000000e+00  -1.274872571230e-01   3.296739161015e-01   0.000000000000e+00  -1.237095072865e-01 
  3.296739161015e-01   0.000000000000e+00  -1.237095072865e-01   0.000000000000e+00  -1.311809271574e-01  -2.545869052410e-01   0.000000000000e+00  -1.311809271574e-01  -2.545869052410e-01 
  3.552690893412e-02  -1.192505210638e-01  -2.155762314796e-01   7.597474008799e-02  -9.231814742088e-02  -1.749309897423e-01   9.670060127974e-02  -6.364065408707e-02  -1.527423709631e-01 
  3.241293830797e-03  -6.152983382344e-02  -1.403837949038e-01  -7.567988336086e-02  -8.744646608829e-02  -1.641265749931e-01   1.527861342765e-03  -1.224650889635e-01  -1.670699417591e-01 
  7.669191062450e-02  -2.010600715876e-01  -1.830138415098e-01   7.669191062450e-02  -2.010600715876e-01  -1.830138415098e-01   0.000000000000e+00  -1.311809271574e-01  -2.545869052410e-01 
  0.000000000000e+00  -1.311809271574e-01  -2.545869052410e-01   3.552690893412e-02  -1.192505210638e-01  -2.155762314796e-01   7.597474008799e-02  -9.231814742088e-02  -1.749309897423e-01 
  9.670060127974e-02  -6.364065408707e-02  -1.527423709631e-01   3.241293830797e-03  -6.152983382344e-02  -1.403837949038e-01  -7.567988336086e-02  -8.744646608829e-02  -1.641265749931e-01 
  1.527861342765e-03  -1.224650889635e-01  -1.670699417591e-01   7.669191062450e-02  -2.010600715876e-01  -1.830138415098e-01   7.669191062450e-02  -2.010600715876e-01  -1.830138415098e-01 
  0.000000000000e+00   3.108309023082e-02  -1.935350745916e-01   0.000000000000e+00   3.108309023082e-02  -1.935350745916e-01  -1.309729274362e-02  -1.526407599449e-01  -2.149367779493e-01 
  1.256130784750e-01  -2.770833373070e-01  -2.029410004616e-01   1.207202151418e-01  -1.456104964018e-01  -1.928595006466e-01   4.113155230880e-02  -3.579629585147e-02  -1.451353579760e-01 
  2.624109014869e-02  -2.036407776177e-02  -1.435319930315e-01   2.254645712674e-02  -2.060802467167e-02  -1.350460797548e-01   1.179797425866e-01   5.344269052148e-02  -1.392827630043e-01 
  1.179797425866e-01   5.344269052148e-02  -1.392827630043e-01   0.000000000000e+00   1.900552026927e-02  -2.013435214758e-01   0.000000000000e+00   1.900552026927e-02  -2.013435214758e-01 
  9.005460143089e-02   1.288822013885e-02  -1.816013306379e-01   5.704646930099e-02  -5.962034221739e-03  -1.584239155054e-01   5.791984125972e-02  -9.963288903236e-02  -1.561716198921e-01 
  4.652962833643e-02  -1.585021167994e-01  -1.585500389338e-01   5.605977773666e-02  -9.765429794788e-02  -1.869002580643e-01   1.350557357073e-01  -7.404017448425e-02  -1.398803740740e-01 
  1.155912950635e-01  -2.841762080789e-02  -1.395744085312e-01   1.155912950635e-01  -2.841762080789e-02  -1.395744085312e-01   0.000000000000e+00   3.932990948670e-04  -2.414073050022e-01 
  0.000000000000e+00   3.932990948670e-04  -2.414073050022e-01  -5.800475552678e-02  -4.261980205774e-02  -2.399321645498e-01   4.033106192946e-02  -1.856334623881e-03  -1.758828312159e-01 
  3.088784031570e-02  -6.427660584450e-02  -1.505913734436e-01  -9.271374903619e-03  -6.812406331301e-02  -1.471104770899e-01   1.263692695647e-02  -2.562624216080e-02  -1.597003042698e-01 
  9.127529710531e-02  -4.889271035790e-02  -1.614589244127e-01   3.251088410616e-02  -1.499515920877e-01  -2.101254463196e-01   3.251088410616e-02  -1.499515920877e-01  -2.101254463196e-01 
  0.000000000000e+00   6.588650867343e-03  -1.915285736322e-01   0.000000000000e+00   6.588650867343e-03  -1.915285736322e-01  -1.961149089038e-02  -3.793959319592e-02  -2.028768956661e-01 
  1.159470006824e-01  -9.541582316160e-03  -1.977828145027e-01   9.309333562851e-02  -3.559519723058e-02  -2.041467279196e-01   1.209232211113e-01   5.159229040146e-02  -1.462213844061e-01 
  2.185037545860e-02  -3.125265985727e-02  -1.466893255711e-01  -3.518397361040e-02   8.869249722920e-04  -1.409624516964e-01  -6.702440977097e-02   5.618127062917e-03  -1.643805354834e-01 
 -6.702440977097e-02   5.618127062917e-03  -1.643805354834e-01   0.000000000000e+00  -1.493535283953e-02  -1.975451856852e-01   0.000000000000e+00  -1.493535283953e-02  -1.975451856852e-01 
  2.095803804696e-02  -6.062441691756e-02  -1.874323636293e-01   6.755077093840e-02   5.024259164929e-02  -1.586236655712e-01   7.601240277290e-02   3.903324529529e-02  -1.573562026024e-01 
  1.715729534626e-01   6.131771579385e-02  -1.585059016943e-01   7.388526201248e-02  -1.581571809947e-02  -1.818607151508e-01   7.186882197857e-02  -1.503039803356e-02  -1.437088549137e-01 
  8.489816635847e-02   4.878694191575e-02  -1.398763656616e-01   8.489816635847e-02   4.878694191575e-02  -1.398763656616e-01   0.000000000000e+00  -1.563117839396e-02  -2.237296700478e-01 
  0.000000000000e+00  -1.563117839396e-02  -2.237296700478e-01   1.301319338381e-02  -5.160583183169e-02  -2.153100371361e-01   1.351226866245e-01   4.846495017409e-02  -1.523629873991e-01 
  5.948903411627e-02   3.081290796399e-02  -1.480090022087e-01   1.461522281170e-01   8.994163945317e-03  -1.369686722755e-01   3.446472063661e-02   2.852299809456e-02  -1.527547687292e-01 
  8.074942231178e-02   3.425715025514e-03  -1.596204042435e-01   1.821528822184e-01  -9.612245112658e-02  -1.933824121952e-01   1.821528822184e-01  -9.612245112658e-02  -1.933824121952e-01 
  0.000000000000e+00   0.000000000000e+00  -1.885945051908e-01   0.000000000000e+00   0.000000000000e+00  -1.885945051908e-01  -1.519531069789e-04   0.000000000000e+00  -1.724033355713e-01 
  4.164715856314e-02   0.000000000000e+00  -1.584035307169e-01  -8.076369017363e-02   0.000000000000e+00  -1.896837502718e-01   2.038326859474e-01   0.000000000000e+00  -1.435770988464e-01 
  1.596113890409e-01   0.000000000000e+00  -1.290614902973e-01   1.332792043686e-01   0.000000000000e+00  -1.274872571230e-01   3.296739161015e-01   0.000000000000e+00  -1.237095072865e-01 
  3.296739161015e-01   0.000000000000e+00  -1.237095072865e-01   0.000000000000e+00   0.000000000000e+00  -1.885945051908e-01   0.000000000000e+00   0.000000000000e+00  -1.885945051908e-01 
 -1.519531069789e-04   0.000000000000e+00  -1.724033355713e-01   4.164715856314e-02   0.000000000000e+00  -1.584035307169e-01  -8.076369017363e-02   0.000000000000e+00  -1.896837502718e-01 
  2.038326859474e-01   0.000000000000e+00  -1.435770988464e-01   1.596113890409e-01   0.000000000000e+00  -1.290614902973e-01   1.332792043686e-01   0.000000000000e+00  -1.274872571230e-01 
  3.296739161015e-01   0.000000000000e+00  -1.237095072865e-01   3.296739161015e-01   0.000000000000e+00  -1.237095072865e-01   0.000000000000e+00  -1.503281742334e-01  -5.890535116196e-01 
  0.000000000000e+00  -1.503281742334e-01  -5.890535116196e-01   3.799484372139e-01  -1.116284281015e-01  -6.951009035110e-01   5.758409500122e-01  -1.164346113801e-01  -7.385936975479e-01 
  6.801474094391e-01  -2.502765133977e-02  -7.423536777496e-01   1.046942591667e+00  -8.090693503618e-03  -1.963035911322e-01   0.000000000000e+00  -2.824693173170e-02  -1.002655148506e+00 
  2.439720090479e-03  -5.446060746908e-02  -9.990333318710e-01  -9.749306440353e-01  -5.965063571930e-01  -1.698616333306e-02  -9.749306440353e-01  -5.965063571930e-01  -1.698616333306e-02 
  0.000000000000e+00  -1.503281742334e-01  -5.890535116196e-01   0.000000000000e+00  -1.503281742334e-01  -5.890535116196e-01   3.799484372139e-01  -1.116284281015e-01  -6.951009035110e-01 
  5.758409500122e-01  -1.164346113801e-01  -7.385936975479e-01   6.801474094391e-01  -2.502765133977e-02  -7.423536777496e-01   1.046942591667e+00  -8.090693503618e-03  -1.963035911322e-01 
  0.000000000000e+00  -2.824693173170e-02  -1.002655148506e+00   2.439720090479e-03  -5.446060746908e-02  -9.990333318710e-01  -9.749306440353e-01  -5.965063571930e-01  -1.698616333306e-02 
 -9.749306440353e-01  -5.965063571930e-01  -1.698616333306e-02   0.000000000000e+00   7.713364809752e-02  -1.222551226616e+00   0.000000000000e+00   7.713364809752e-02  -1.222551226616e+00 
  2.806529700756e-01   1.569453626871e-03  -8.870265483856e-01   2.092426717281e-01  -4.034301731735e-03  -7.654824852943e-01   3.519580066204e-01   3.524094074965e-02  -3.938059806824e-01 
  1.175161004066e-01  -7.974469102919e-03  -1.466408818960e-01  -1.319799199700e-02  -1.874517463148e-02  -1.024568915367e+00   5.998736247420e-02  -2.342659607530e-02  -1.031166434288e+00 
  9.867573529482e-02  -5.182013511658e-01  -6.071723997593e-02   9.867573529482e-02  -5.182013511658e-01  -6.071723997593e-02   0.000000000000e+00   8.590933680534e-02  -1.013231635094e+00 
  0.000000000000e+00   8.590933680534e-02  -1.013231635094e+00   2.850229442120e-01   8.566648513079e-02  -7.478349208832e-01   2.670658230782e-01   9.410197287798e-02  -6.295264959335e-01 
  1.063703536987e+00   6.004702881910e-04  -4.830219149590e-01  -4.094698131084e-01  -1.043950095773e-01  -7.924412488937e-01  -1.987782269716e-01  -1.138550266623e-01  -7.713295817375e-01 
  2.001733630896e-01  -1.097798645496e-01  -3.687781095505e-01  -6.334361154586e-03  -4.622206836939e-02  -3.866022229195e-01  -6.334361154586e-03  -4.622206836939e-02  -3.866022229195e-01 
  0.000000000000e+00   3.547473251820e-02  -1.024647593498e+00   0.000000000000e+00   3.547473251820e-02  -1.024647593498e+00   3.283476531506e-01   2.154516130686e-01  -4.838946461678e-01 
  4.294285178185e-01   7.423943607137e-04  -7.523401975632e-01   6.946023106575e-01  -9.992402791977e-02  -6.801576018333e-01  -1.201529741287e+00   1.868631690741e-02  -1.648892760277e-01 
 -4.536130726337e-01  -1.672609895468e-01  -6.242296099663e-01   2.652909755707e-01  -2.252850383520e-01  -6.528787016869e-01  -2.783001661301e-01  -1.644705832005e-01  -9.902709722519e-01 
 -2.783001661301e-01  -1.644705832005e-01  -9.902709722519e-01   0.000000000000e+00   1.018036454916e-01  -8.833454251289e-01   0.000000000000e+00   1.018036454916e-01  -8.833454251289e-01 
  1.347850114107e-01  -4.074956849217e-02  -9.901677966118e-01   3.436170220375e-01  -1.442341953516e-01  -9.622839093208e-01   5.840095877647e-01   1.097455695271e-01  -6.700909733772e-01 
 -2.120953500271e-01   1.460822969675e-01  -4.418430030346e-01  -2.679503858089e-01  -9.421761333942e-02  -6.469640135765e-01   3.678196668625e-01  -1.080572456121e-01  -6.822358369827e-01 
 -6.107041835785e-01  -1.259271651506e-01  -8.344154357910e-01  -6.107041835785e-01  -1.259271651506e-01  -8.344154357910e-01   0.000000000000e+00   7.762500643730e-02  -9.793349504471e-01 
  0.000000000000e+00   7.762500643730e-02  -9.793349504471e-01   2.318510115147e-01   1.677242070436e-01  -1.095817208290e+00   4.310065507889e-01   1.456757336855e-01  -8.880533576012e-01 
  6.051602959633e-01   2.461304068565e-01  -7.381760478020e-01   1.170107051730e-01   1.442289650440e-01  -6.271593570709e-01   5.819839239120e-02   3.023092448711e-01  -7.730836421251e-02 
  1.702503710985e-01  -1.045630034059e-02  -2.234297096729e-01  -4.296842813492e-01   8.243035525084e-02  -3.495797812939e-01  -4.296842813492e-01   8.243035525084e-02  -3.495797812939e-01 
  0.000000000000e+00  -3.277303278446e-02  -7.426543831825e-01   0.000000000000e+00  -3.277303278446e-02  -7.426543831825e-01   9.359563887119e-02  -1.094925850630e-01  -6.171092391014e-01 
  1.297702938318e-01   3.247677385807e-01  -1.165061593056e+00   2.281868159771e-01  -5.042184516788e-02  -7.324852347374e-01  -3.186378777027e-01  -1.061927434057e-02  -7.905194759369e-01 
 -5.685112476349e-01   7.811070978642e-02  -5.610197186470e-01   2.891775406897e-02   3.186800284311e-03  -3.304274678230e-01   1.232861578465e-01   1.011511962861e-02  -2.966560125351e-01 
  1.232861578465e-01   1.011511962861e-02  -2.966560125351e-01   0.000000000000e+00   0.000000000000e+00  -9.682916402817e-01   0.000000000000e+00   0.000000000000e+00  -9.682916402817e-01 
  3.634728789330e-01   0.000000000000e+00  -5.070613231510e-03   2.244856506586e-01   8.954939246178e-02  -1.047061085701e+00  -2.872453927994e-01   0.000000000000e+00  -3.887964189053e-01 
 -1.494377255440e+00   0.000000000000e+00  -9.286202788353e-01  -1.928729534149e+00   0.000000000000e+00  -1.561990022659e+00   0.000000000000e+00   0.000000000000e+00  -7.251274585724e-02 
  3.184961378574e-01   3.278033982497e-04  -7.629048824310e-02   3.184961378574e-01   3.278033982497e-04  -7.629048824310e-02   0.000000000000e+00   0.000000000000e+00  -9.682916402817e-01 
  0.000000000000e+00   0.000000000000e+00  -9.682916402817e-01   3.634728789330e-01   0.000000000000e+00  -5.070613231510e-03   2.244856506586e-01   8.954939246178e-02  -1.047061085701e+00 
 -2.872453927994e-01   0.000000000000e+00  -3.887964189053e-01  -1.494377255440e+00   0.000000000000e+00  -9.286202788353e-01  -1.928729534149e+00   0.000000000000e+00  -1.561990022659e+00 
  0.000000000000e+00   0.000000000000e+00  -7.251274585724e-02   3.184961378574e-01   3.278033982497e-04  -7.629048824310e-02   3.184961378574e-01   3.278033982497e-04  -7.629048824310e-02 
  0.000000000000e+00   4.870359972119e-02  -3.192490339279e-01   0.000000000000e+00   4.870359972119e-02  -3.192490339279e-01   2.767788171768e-01   2.325271070004e-02   5.364847183228e-02 
  2.281948029995e-01  -1.947618089616e-02  -5.058664083481e-01   0.000000000000e+00   7.670686580241e-03  -9.727064967155e-01   0.000000000000e+00  -6.097168195993e-03  -2.640843689442e-01 
  0.000000000000e+00  -2.561343312263e-01  -7.148661017418e-01   0.000000000000e+00  -5.521166324615e-01  -1.000000014901e-01  -1.016391754150e+00  -6.752288937569e-01   1.755084544420e-01 
 -1.016391754150e+00  -6.752288937569e-01   1.755084544420e-01   0.000000000000e+00   4.870359972119e-02  -3.192490339279e-01   0.000000000000e+00   4.870359972119e-02  -3.192490339279e-01 
  2.767788171768e-01   2.325271070004e-02   5.364847183228e-02   2.281948029995e-01  -1.947618089616e-02  -5.058664083481e-01   0.000000000000e+00   7.670686580241e-03  -9.727064967155e-01 
  0.000000000000e+00  -6.097168195993e-03  -2.640843689442e-01   0.000000000000e+00  -2.561343312263e-01  -7.148661017418e-01   0.000000000000e+00  -5.521166324615e-01  -1.000000014901e-01 
 -1.016391754150e+00  -6.752288937569e-01   1.755084544420e-01  -1.016391754150e+00  -6.752288937569e-01   1.755084544420e-01   0.000000000000e+00   1.904115378857e-01  -1.913596987724e-01 
  0.000000000000e+00   1.904115378857e-01  -1.913596987724e-01   2.634890973568e-01  -2.452966524288e-03  -9.041400253773e-02   1.386021077633e-01  -4.815947730094e-03  -1.395621597767e-01 
  2.545318305492e-01   2.068782225251e-02  -3.033015429974e-01   5.608398467302e-02   1.596582238562e-03  -1.574335396290e-01  -1.927234679461e-01  -1.690875440836e-01  -1.293756365776e-01 
 -1.285589486361e-01  -4.487512111664e-01  -5.117051005363e-01  -6.964167356491e-01  -5.372879505157e-01   2.444789260626e-01  -6.964167356491e-01  -5.372879505157e-01   2.444789260626e-01 
  0.000000000000e+00  -7.033906877041e-02  -3.819272816181e-01   0.000000000000e+00  -7.033906877041e-02  -3.819272816181e-01   1.274386495352e-01  -1.217242404819e-01  -5.575248003006e-01 
  1.884551346302e-01  -1.373542658985e-02  -6.155344247818e-01   2.492220848799e-01  -1.341828405857e-01  -5.632799863815e-01  -3.045428693295e-01  -1.368904206902e-02  -1.880095452070e-01 
 -4.520300328732e-01   0.000000000000e+00   1.222838044167e+00  -2.699351012707e-01  -9.788788110018e-02  -4.396953061223e-02  -1.773923486471e-01   0.000000000000e+00  -3.866825401783e-01 
 -1.773923486471e-01   0.000000000000e+00  -3.866825401783e-01   0.000000000000e+00  -3.295147046447e-02  -6.599532961845e-01   0.000000000000e+00  -3.295147046447e-02  -6.599532961845e-01 
  2.106676548719e-01  -6.353627890348e-02  -4.490772783756e-01   1.819822788239e-01  -3.017770685256e-02  -3.393207192421e-01  -4.429324865341e-01  -4.547839164734e-01  -5.531874895096e-01 
 -5.329849720001e-01  -2.408819831908e-02  -1.418812200427e-02  -6.813482046127e-01  -2.604513615370e-02   7.878103852272e-02  -4.461418986320e-01  -1.297066360712e-01  -9.822376817465e-02 
 -3.516501486301e-01  -1.325193941593e-01  -6.136729717255e-01  -3.516501486301e-01  -1.325193941593e-01  -6.136729717255e-01   0.000000000000e+00   2.805472910404e-02  -3.591997921467e-01 
  0.000000000000e+00   2.805472910404e-02  -3.591997921467e-01   2.132763564587e-01   1.207035034895e-01  -3.517161905766e-01   2.143573015928e-02   3.881393671036e-01  -2.617208957672e-01 
 -2.170134335756e-01  -1.554701477289e-01  -8.443550765514e-02  -6.463981270790e-01   2.905702963471e-02  -2.357011288404e-01  -4.027171432972e-01   7.937045395374e-02  -2.793687880039e-01 
 -1.300103217363e-01  -1.175212785602e-01  -4.986293613911e-01  -4.096226096153e-01  -8.003046363592e-02  -6.801367402077e-01  -4.096226096153e-01  -8.003046363592e-02  -6.801367402077e-01 
  0.000000000000e+00   2.164506725967e-02  -3.443809747696e-01   0.000000000000e+00   2.164506725967e-02  -3.443809747696e-01   1.658828109503e-01   6.723225861788e-02  -3.678496181965e-01 
  3.058468103409e-01   8.187796920538e-02  -6.279922276735e-02   5.017257928848e-01   2.019693106413e-01  -5.893464088440e-01   4.027674198151e-01  -1.187871992588e-01  -5.610067844391e-01 
 -1.646626368165e-02  -3.046595454216e-01  -1.000000014901e-01   1.659861952066e-01  -3.260181471705e-02  -8.980950117111e-01  -1.294572800398e-01  -2.090488374233e-02  -1.020029306412e+00 
 -1.294572800398e-01  -2.090488374233e-02  -1.020029306412e+00   0.000000000000e+00  -1.992870867252e-02  -6.184470653534e-01   0.000000000000e+00  -1.992870867252e-02  -6.184470653534e-01 
 -2.609325200319e-02  -6.497440487146e-02  -4.028134047985e-01   1.022572070360e-01   8.503826335073e-03  -8.432701230049e-01   5.430715084076e-01  -1.854940876365e-02  -1.081937670708e+00 
  5.996145680547e-02  -1.978179663420e-01  -1.067276716232e+00   9.434503316879e-02  -3.046595454216e-01  -8.011555671692e-01   1.654285639524e-01   9.527249261737e-03  -6.483279466629e-01 
 -5.773595720530e-02   4.113512486219e-02  -9.890093207359e-01  -5.773595720530e-02   4.113512486219e-02  -9.890093207359e-01   0.000000000000e+00   0.000000000000e+00  -6.274299621582e-01 
  0.000000000000e+00   0.000000000000e+00  -6.274299621582e-01   1.612681001425e-01   0.000000000000e+00  -5.151216983795e-01   2.070328742266e-01   0.000000000000e+00  -7.685248851776e-01 
  3.450434803963e-01  -5.354528781027e-03  -9.061173796654e-01  -1.049579262733e+00  -9.286089334637e-04  -1.504917502403e+00   0.000000000000e+00   3.842053236440e-03  -1.591051578522e+00 
  8.064401336014e-03   1.795560005121e-03  -1.435382813215e-01   1.743712127209e-01   0.000000000000e+00  -1.000000014901e-01   1.743712127209e-01   0.000000000000e+00  -1.000000014901e-01 
  0.000000000000e+00   0.000000000000e+00  -6.274299621582e-01   0.000000000000e+00   0.000000000000e+00  -6.274299621582e-01   1.612681001425e-01   0.000000000000e+00  -5.151216983795e-01 
  2.070328742266e-01   0.000000000000e+00  -7.685248851776e-01   3.450434803963e-01  -5.354528781027e-03  -9.061173796654e-01  -1.049579262733e+00  -9.286089334637e-04  -1.504917502403e+00 
  0.000000000000e+00   3.842053236440e-03  -1.591051578522e+00   8.064401336014e-03   1.795560005121e-03  -1.435382813215e-01   1.743712127209e-01   0.000000000000e+00  -1.000000014901e-01 
  1.743712127209e-01   0.000000000000e+00  -1.000000014901e-01   0.000000000000e+00   1.248291344382e-03  -8.633949756622e-01   0.000000000000e+00   1.248291344382e-03  -8.633949756622e-01 
  7.350663095713e-02   2.567057497799e-02  -5.052117109299e-01   3.035753071308e-01  -9.385725483298e-03  -4.669320881367e-01   0.000000000000e+00  -2.443798445165e-02  -1.000000014901e-01 
 -1.462968531996e-02  -1.884915307164e-02  -2.500976026058e-01  -2.887899242342e-02  -5.807225406170e-02  -1.000000014901e-01   0.000000000000e+00   7.722790353000e-03  -1.000000014901e-01 
 -1.018612310290e-01  -1.435659825802e-02  -8.440041914582e-03  -1.018612310290e-01  -1.435659825802e-02  -8.440041914582e-03   0.000000000000e+00   1.248291344382e-03  -8.633949756622e-01 
  0.000000000000e+00   1.248291344382e-03  -8.633949756622e-01   7.350663095713e-02   2.567057497799e-02  -5.052117109299e-01   3.035753071308e-01  -9.385725483298e-03  -4.669320881367e-01 
  0.000000000000e+00  -2.443798445165e-02  -1.000000014901e-01  -1.462968531996e-02  -1.884915307164e-02  -2.500976026058e-01  -2.887899242342e-02  -5.807225406170e-02  -1.000000014901e-01 
  0.000000000000e+00   7.722790353000e-03  -1.000000014901e-01  -1.018612310290e-01  -1.435659825802e-02  -8.440041914582e-03  -1.018612310290e-01  -1.435659825802e-02  -8.440041914582e-03 
  0.000000000000e+00   1.373383849859e-01  -5.329992175102e-01   0.000000000000e+00   1.373383849859e-01  -5.329992175102e-01   1.516634672880e-01  -4.503333568573e-02  -2.544519603252e-01 
  2.630575895309e-01  -4.601118713617e-02  -2.283139079809e-01   2.430820465088e-01  -1.714575849473e-02  -3.850845694542e-01  -1.556867361069e-01  -2.292143879458e-03  -2.927606999874e-01 
 -5.492393374443e-01  -3.172962460667e-03   5.252090692520e-01  -2.237945050001e-01   1.287215296179e-02   1.607429422438e-02  -1.387418657541e-01   5.372684448957e-02   2.444789260626e-01 
 -1.387418657541e-01   5.372684448957e-02   2.444789260626e-01   0.000000000000e+00  -5.158060230315e-03  -1.187046244740e-01   0.000000000000e+00  -5.158060230315e-03  -1.187046244740e-01 
  7.368953526020e-02  -5.377384275198e-02  -3.093098998070e-01   2.816966772079e-01  -4.525921866298e-02  -5.618850588799e-01   1.394496560097e-01  -1.312156915665e-01  -7.797033190727e-01 
 -3.784773945808e-01   0.000000000000e+00  -2.669381797314e-01  -7.090069651604e-01  -1.068843621761e-02   1.196305871010e+00  -5.184062719345e-01  -3.257162496448e-02   5.954281687737e-01 
 -2.828852534294e-01   0.000000000000e+00  -8.825599402189e-02  -2.828852534294e-01   0.000000000000e+00  -8.825599402189e-02   0.000000000000e+00   6.261393427849e-02  -5.137482285500e-01 
  0.000000000000e+00   6.261393427849e-02  -5.137482285500e-01  -2.424521185458e-02  -2.468110024929e-01  -3.553284704685e-01   7.491639256477e-02  -5.176977068186e-02  -6.216829419136e-01 
 -2.011418640614e-01  -1.591345816851e-01  -9.697105288506e-01  -2.434184104204e-01  -8.678039908409e-02  -2.897099852562e-01  -9.005905985832e-01  -2.249299362302e-02   1.238880872726e+00 
 -6.523564457893e-01  -5.813117697835e-02   7.977193593979e-01  -4.609230458736e-01  -1.061238050461e-01  -3.545951470733e-02  -4.609230458736e-01  -1.061238050461e-01  -3.545951470733e-02 
  0.000000000000e+00   1.244581192732e-01  -6.335143446922e-01   0.000000000000e+00   1.244581192732e-01  -6.335143446922e-01   9.856475144625e-02  -1.740772724152e-01  -7.499968409538e-01 
  6.977385282516e-02   1.778608858585e-01  -5.586230754852e-01   1.191249936819e-01  -1.498158462346e-02  -4.662519097328e-01   1.487812548876e-01   7.714817300439e-03  -4.172112643719e-01 
  9.184342622757e-02   3.033546358347e-02  -8.589684367180e-01   9.518346190453e-02  -1.310977991670e-02  -6.672754883766e-01  -2.091726958752e-01  -4.576363787055e-02  -1.000000014901e-01 