# vtk DataFile Version 2.0
Written using VisIt writer
ASCII
DATASET RECTILINEAR_GRID
DIMENSIONS 10 10 10
X_COORDINATES 10 float
  0.000000000000e+00   5.000000000000e-01   1.000000000000e+00   1.500000000000e+00   2.000000000000e+00   2.500000000000e+00   3.000000000000e+00   3.500000000000e+00   4.000000000000e+00 
  4.500000000000e+00 
Y_COORDINATES 10 float
  0.000000000000e+00   5.000000000000e-01   1.000000000000e+00   1.500000000000e+00   2.000000000000e+00   2.500000000000e+00   3.000000000000e+00   3.500000000000e+00   4.000000000000e+00 
  4.500000000000e+00 
Z_COORDINATES 10 float
  0.000000000000e+00   5.000000000000e-01   1.000000000000e+00   1.500000000000e+00   2.000000000000e+00   2.500000000000e+00   3.000000000000e+00   3.500000000000e+00   4.000000000000e+00 
  4.500000000000e+00 
CELL_DATA 729
POINT_DATA 1000
VECTORS velocity float
  0.000000000000e+00  -1.082676425576e-01  -2.278432101011e-01   3.251200000000e+04   0.000000000000e+00   0.000000000000e+00   0.000000000000e+00   0.000000000000e+00   0.000000000000e+00 
  1.169106177986e-02  -5.260766670108e-02  -1.495828181505e-01   0.000000000000e+00   0.000000000000e+00   0.000000000000e+00   0.000000000000e+00   1.431655808000e+09   1.070945600000e+09 
 -1.309537738562e-01  -7.146960496902e-02  -1.769882589579e-01   1.071994176000e+09   0.000000000000e+00   0.000000000000e+00   0.000000000000e+00   0.000000000000e+00   0.000000000000e+00 
 -9.465984255075e-02  -9.329351037741e-02  -2.714136242867e-01   0.000000000000e+00  -1.082676425576e-01  -2.278432101011e-01   1.070945600000e+09   0.000000000000e+00   0.000000000000e+00 
 -6.410357356071e-02  -1.122317686677e-01  -2.255734652281e-01   1.169106177986e-02  -5.260766670108e-02  -1.495828181505e-01   1.431655808000e+09   1.070945600000e+09   0.000000000000e+00 
 -4.303906112909e-02  -3.868221119046e-02  -1.471601724625e-01  -1.309537738562e-01  -7.146960496902e-02  -1.769882589579e-01   0.000000000000e+00   0.000000000000e+00   1.071644672000e+09 
 -9.465984255075e-02  -9.329351037741e-02  -2.714136242867e-01  -9.465984255075e-02  -9.329351037741e-02  -2.714136242867e-01   0.000000000000e+00   3.246328234673e-02  -1.736263483763e-01 
  0.000000000000e+00   3.246328234673e-02  -1.736263483763e-01  -1.341769993305e-01   6.497983634472e-02  -1.916288882494e-01  -9.300069510937e-02  -6.365054845810e-02  -1.722906678915e-01 
 -1.280802488327e-01  -1.728995293379e-01  -2.175267040730e-01   5.556680634618e-02  -4.825200885534e-02  -1.444247066975e-01   2.633171342313e-02  -5.260821059346e-02  -1.526396274567e-01 
  1.984975673258e-02  -2.728032320738e-02  -1.438953578472e-01  -1.204505097121e-02   1.834992319345e-02  -1.625681668520e-01  -1.204505097121e-02   1.834992319345e-02  -1.625681668520e-01 
  0.000000000000e+00   4.725006595254e-02  -1.720177084208e-01   0.000000000000e+00   4.725006595254e-02  -1.720177084208e-01  -7.399447262287e-02   1.057365611196e-01  -1.705465316772e-01 
 -2.722129970789e-02   4.076890647411e-02  -1.471828967333e-01  -8.650763332844e-02  -5.524199083447e-02  -1.703798472881e-01  -8.076900988817e-02  -7.796795666218e-02  -1.816845238209e-01 
 -1.833523660898e-01  -3.860653191805e-02  -2.538540363312e-01   1.475960202515e-02   1.479081902653e-02  -1.493895947933e-01  -1.013618614525e-02  -4.541884362698e-02  -1.686597317457e-01 
 -1.013618614525e-02  -4.541884362698e-02  -1.686597317457e-01   0.000000000000e+00  -9.287912398577e-02  -2.203044444323e-01   0.000000000000e+00  -9.287912398577e-02  -2.203044444323e-01 
 -5.942513048649e-02   1.945084705949e-02  -2.515394389629e-01   9.693697839975e-02  -2.522300928831e-03  -1.567224115133e-01   2.087823348120e-03  -1.222981046885e-02  -1.699839234352e-01 
 -8.542031049728e-02   2.114504575729e-02  -1.463848501444e-01  -2.089544385672e-01  -6.160703953356e-03  -2.019156664610e-01  -1.448925137520e-01  -9.608785063028e-02  -2.161695212126e-01 
 -8.212748169899e-02  -1.824531704187e-01  -2.805733084679e-01  -8.212748169899e-02  -1.824531704187e-01  -2.805733084679e-01   0.000000000000e+00   4.803320392966e-02  -1.746794879436e-01 
  0.000000000000e+00   4.803320392966e-02  -1.746794879436e-01  -8.171443641186e-02   1.175723131746e-02  -1.982389390469e-01  -1.229643542320e-02   5.502082407475e-02  -1.844986528158e-01 
 -1.686467528343e-01   5.052601546049e-02  -2.245720475912e-01  -1.385293249041e-02   8.524277806282e-02  -1.444316953421e-01  -5.151410773396e-02   4.838032275438e-02  -1.532039791346e-01 
 -2.060989104211e-02  -1.462693791837e-03  -1.432138681412e-01   1.886870339513e-02  -6.192022189498e-02  -1.624376326799e-01   1.886870339513e-02  -6.192022189498e-02  -1.624376326799e-01 
  0.000000000000e+00   4.111888632178e-02  -1.892941296101e-01   0.000000000000e+00   4.111888632178e-02  -1.892941296101e-01  -3.557378798723e-02  -2.655124291778e-02  -1.802786737680e-01 
 -2.801978774369e-02   4.303361102939e-02  -1.516120731831e-01  -1.832420378923e-01   9.815523773432e-02  -1.803771257401e-01  -1.633283942938e-01   3.994642198086e-02  -1.848288923502e-01 
 -1.098093092442e-01   1.953290589154e-02  -2.517895996571e-01   1.331102699041e-01   2.861940115690e-02  -1.524284780025e-01   1.216896623373e-01  -1.154545992613e-01  -1.661410033703e-01 
  1.216896623373e-01  -1.154545992613e-01  -1.661410033703e-01   0.000000000000e+00   6.292568892241e-02  -2.222925275564e-01   0.000000000000e+00   6.292568892241e-02  -2.222925275564e-01 
 -8.223443478346e-02  -2.795680984855e-02  -2.218094617128e-01   6.981473416090e-02  -1.434973790310e-03  -1.511793285608e-01  -6.117276847363e-02   5.827393010259e-02  -1.586413383484e-01 
 -8.175797760487e-02   9.137029945850e-02  -1.512035727501e-01  -7.129205018282e-02   8.117862790823e-02  -1.684016734362e-01   1.698970794678e-02  -3.034483827651e-02  -1.895492374897e-01 
  5.538516864181e-02  -1.057019680738e-01  -2.325790822506e-01   5.538516864181e-02  -1.057019680738e-01  -2.325790822506e-01   0.000000000000e+00   0.000000000000e+00  -1.884266883135e-01 
  0.000000000000e+00   0.000000000000e+00  -1.884266883135e-01  -3.939287364483e-02   0.000000000000e+00  -1.811751574278e-01  -3.785594925284e-02   0.000000000000e+00  -1.623052954674e-01 
 -7.857520878315e-02   0.000000000000e+00  -2.043356299400e-01   7.588499039412e-02   0.000000000000e+00  -1.466876864433e-01   2.926135202870e-03   0.000000000000e+00  -1.469591856003e-01 
  4.356322437525e-02   0.000000000000e+00  -1.381987631321e-01   1.088297590613e-01   0.000000000000e+00  -1.450574994087e-01   1.088297590613e-01   0.000000000000e+00  -1.450574994087e-01 
  0.000000000000e+00   0.000000000000e+00  -1.884266883135e-01   0.000000000000e+00   0.000000000000e+00  -1.884266883135e-01  -3.939287364483e-02   0.000000000000e+00  -1.811751574278e-01 
 -3.785594925284e-02   0.000000000000e+00  -1.623052954674e-01  -7.857520878315e-02   0.000000000000e+00  -2.043356299400e-01   7.588499039412e-02   0.000000000000e+00  -1.466876864433e-01 
  2.926135202870e-03   0.000000000000e+00  -1.469591856003e-01   4.356322437525e-02   0.000000000000e+00  -1.381987631321e-01   1.088297590613e-01   0.000000000000e+00  -1.450574994087e-01 
  1.088297590613e-01   0.000000000000e+00  -1.450574994087e-01   0.000000000000e+00  -1.082676425576e-01  -2.278432101011e-01   0.000000000000e+00  -1.082676425576e-01  -2.278432101011e-01 
 -6.410357356071e-02  -1.122317686677e-01  -2.255734652281e-01   1.169106177986e-02  -5.260766670108e-02  -1.495828181505e-01  -9.210690855980e-02  -4.822225868702e-02  -1.507267504930e-01 
 -4.303906112909e-02  -3.868221119046e-02  -1.471601724625e-01  -1.309537738562e-01  -7.146960496902e-02  -1.769882589579e-01  -1.056512370706e-01  -8.062137663364e-02  -1.967080831528e-01 
 -9.465984255075e-02  -9.329351037741e-02  -2.714136242867e-01  -9.465984255075e-02  -9.329351037741e-02  -2.714136242867e-01   0.000000000000e+00  -1.082676425576e-01  -2.278432101011e-01 
  0.000000000000e+00  -1.082676425576e-01  -2.278432101011e-01  -6.410357356071e-02  -1.122317686677e-01  -2.255734652281e-01   1.169106177986e-02  -5.260766670108e-02  -1.495828181505e-01 
 -9.210690855980e-02  -4.822225868702e-02  -1.507267504930e-01  -4.303906112909e-02  -3.868221119046e-02  -1.471601724625e-01  -1.309537738562e-01  -7.146960496902e-02  -1.769882589579e-01 
 -1.056512370706e-01  -8.062137663364e-02  -1.967080831528e-01  -9.465984255075e-02  -9.329351037741e-02  -2.714136242867e-01  -9.465984255075e-02  -9.329351037741e-02  -2.714136242867e-01 
  0.000000000000e+00   3.246328234673e-02  -1.736263483763e-01   0.000000000000e+00   3.246328234673e-02  -1.736263483763e-01  -1.341769993305e-01   6.497983634472e-02  -1.916288882494e-01 
 -9.300069510937e-02  -6.365054845810e-02  -1.722906678915e-01  -1.280802488327e-01  -1.728995293379e-01  -2.175267040730e-01   5.556680634618e-02  -4.825200885534e-02  -1.444247066975e-01 
  2.633171342313e-02  -5.260821059346e-02  -1.526396274567e-01   1.984975673258e-02  -2.728032320738e-02  -1.438953578472e-01  -1.204505097121e-02   1.834992319345e-02  -1.625681668520e-01 
 -1.204505097121e-02   1.834992319345e-02  -1.625681668520e-01   0.000000000000e+00   4.725006595254e-02  -1.720177084208e-01   0.000000000000e+00   4.725006595254e-02  -1.720177084208e-01 
 -7.399447262287e-02   1.057365611196e-01  -1.705465316772e-01  -2.722129970789e-02   4.076890647411e-02  -1.471828967333e-01  -8.650763332844e-02  -5.524199083447e-02  -1.703798472881e-01 
 -8.076900988817e-02  -7.796795666218e-02  -1.816845238209e-01  -1.833523660898e-01  -3.860653191805e-02  -2.538540363312e-01   1.475960202515e-02   1.479081902653e-02  -1.493895947933e-01 
 -1.013618614525e-02  -4.541884362698e-02  -1.686597317457e-01  -1.013618614525e-02  -4.541884362698e-02  -1.686597317457e-01   0.000000000000e+00  -9.287912398577e-02  -2.203044444323e-01 
  0.000000000000e+00  -9.287912398577e-02  -2.203044444323e-01  -5.942513048649e-02   1.945084705949e-02  -2.515394389629e-01   9.693697839975e-02  -2.522300928831e-03  -1.567224115133e-01 
  2.087823348120e-03  -1.222981046885e-02  -1.699839234352e-01  -8.542031049728e-02   2.114504575729e-02  -1.463848501444e-01  -2.089544385672e-01  -6.160703953356e-03  -2.019156664610e-01 
 -1.448925137520e-01  -9.608785063028e-02  -2.161695212126e-01  -8.212748169899e-02  -1.824531704187e-01  -2.805733084679e-01  -8.212748169899e-02  -1.824531704187e-01  -2.805733084679e-01 
  0.000000000000e+00   4.803320392966e-02  -1.746794879436e-01   0.000000000000e+00   4.803320392966e-02  -1.746794879436e-01  -8.171443641186e-02   1.175723131746e-02  -1.982389390469e-01 
 -1.229643542320e-02   5.502082407475e-02  -1.844986528158e-01  -1.686467528343e-01   5.052601546049e-02  -2.245720475912e-01  -1.385293249041e-02   8.524277806282e-02  -1.444316953421e-01 
 -5.151410773396e-02   4.838032275438e-02  -1.532039791346e-01  -2.060989104211e-02  -1.462693791837e-03  -1.432138681412e-01   1.886870339513e-02  -6.192022189498e-02  -1.624376326799e-01 
  1.886870339513e-02  -6.192022189498e-02  -1.624376326799e-01   0.000000000000e+00   4.111888632178e-02  -1.892941296101e-01   0.000000000000e+00   4.111888632178e-02  -1.892941296101e-01 
 -3.557378798723e-02  -2.655124291778e-02  -1.802786737680e-01  -2.801978774369e-02   4.303361102939e-02  -1.516120731831e-01  -1.832420378923e-01   9.815523773432e-02  -1.803771257401e-01 
 -1.633283942938e-01   3.994642198086e-02  -1.848288923502e-01  -1.098093092442e-01   1.953290589154e-02  -2.517895996571e-01   1.331102699041e-01   2.861940115690e-02  -1.524284780025e-01 
  1.216896623373e-01  -1.154545992613e-01  -1.661410033703e-01   1.216896623373e-01  -1.154545992613e-01  -1.661410033703e-01   0.000000000000e+00   6.292568892241e-02  -2.222925275564e-01 
  0.000000000000e+00   6.292568892241e-02  -2.222925275564e-01  -8.223443478346e-02  -2.795680984855e-02  -2.218094617128e-01   6.981473416090e-02  -1.434973790310e-03  -1.511793285608e-01 
 -6.117276847363e-02   5.827393010259e-02  -1.586413383484e-01  -8.175797760487e-02   9.137029945850e-02  -1.512035727501e-01  -7.129205018282e-02   8.117862790823e-02  -1.684016734362e-01 
  1.698970794678e-02  -3.034483827651e-02  -1.895492374897e-01   5.538516864181e-02  -1.057019680738e-01  -2.325790822506e-01   5.538516864181e-02  -1.057019680738e-01  -2.325790822506e-01 
  0.000000000000e+00   0.000000000000e+00  -1.884266883135e-01   0.000000000000e+00   0.000000000000e+00  -1.884266883135e-01  -3.939287364483e-02   0.000000000000e+00  -1.811751574278e-01 
 -3.785594925284e-02   0.000000000000e+00  -1.623052954674e-01  -7.857520878315e-02   0.000000000000e+00  -2.043356299400e-01   7.588499039412e-02   0.000000000000e+00  -1.466876864433e-01 
  2.926135202870e-03   0.000000000000e+00  -1.469591856003e-01   4.356322437525e-02   0.000000000000e+00  -1.381987631321e-01   1.088297590613e-01   0.000000000000e+00  -1.450574994087e-01 
  1.088297590613e-01   0.000000000000e+00  -1.450574994087e-01   0.000000000000e+00   0.000000000000e+00  -1.884266883135e-01   0.000000000000e+00   0.000000000000e+00  -1.884266883135e-01 
 -3.939287364483e-02   0.000000000000e+00  -1.811751574278e-01  -3.785594925284e-02   0.000000000000e+00  -1.623052954674e-01  -7.857520878315e-02   0.000000000000e+00  -2.043356299400e-01 
  7.588499039412e-02   0.000000000000e+00  -1.466876864433e-01   2.926135202870e-03   0.000000000000e+00  -1.469591856003e-01   4.356322437525e-02   0.000000000000e+00  -1.381987631321e-01 
  1.088297590613e-01   0.000000000000e+00  -1.450574994087e-01   1.088297590613e-01   0.000000000000e+00  -1.450574994087e-01   0.000000000000e+00  -8.797305822372e-02  -5.967400670052e-01 
  0.000000000000e+00  -8.797305822372e-02  -5.967400670052e-01   1.760982125998e-01  -1.069429293275e-01  -7.224152684212e-01   3.144481480122e-01  -5.118690896779e-03  -7.239518165588e-01 
 -1.088171359152e-02  -3.738169372082e-02  -7.704704403877e-01  -1.236705947667e-02  -1.814416237175e-02  -8.946061134338e-01   2.134403958917e-02   6.547810882330e-02  -8.178780674934e-01 
  2.729565603659e-03  -1.922062598169e-02  -9.139961600304e-01  -8.012016117573e-02   0.000000000000e+00  -7.450137734413e-01  -8.012016117573e-02   0.000000000000e+00  -7.450137734413e-01 
  0.000000000000e+00  -8.797305822372e-02  -5.967400670052e-01   0.000000000000e+00  -8.797305822372e-02  -5.967400670052e-01   1.760982125998e-01  -1.069429293275e-01  -7.224152684212e-01 
  3.144481480122e-01  -5.118690896779e-03  -7.239518165588e-01  -1.088171359152e-02  -3.738169372082e-02  -7.704704403877e-01  -1.236705947667e-02  -1.814416237175e-02  -8.946061134338e-01 
  2.134403958917e-02   6.547810882330e-02  -8.178780674934e-01   2.729565603659e-03  -1.922062598169e-02  -9.139961600304e-01  -8.012016117573e-02   0.000000000000e+00  -7.450137734413e-01 
 -8.012016117573e-02   0.000000000000e+00  -7.450137734413e-01   0.000000000000e+00   7.497916370630e-02  -4.499714076519e-01   0.000000000000e+00   7.497916370630e-02  -4.499714076519e-01 
  1.284421235323e-01   1.038905158639e-01  -5.384055972099e-01   3.049452006817e-01   2.036517672241e-02  -5.282591581345e-01  -9.112441539764e-02  -1.151959374547e-01  -6.406441330910e-01 
  1.059180274606e-01  -3.817407786846e-02  -6.907311677933e-01  -1.940311864018e-02   4.097693786025e-02  -8.582237362862e-01   2.023964188993e-02  -7.185613736510e-03  -1.275565743446e+00 
  4.218026064336e-03   2.511733770370e-01  -7.143337726593e-01   4.218026064336e-03   2.511733770370e-01  -7.143337726593e-01   0.000000000000e+00   2.824899181724e-02  -5.062468647957e-01 
  0.000000000000e+00   2.824899181724e-02  -5.062468647957e-01   2.173799127340e-01   1.702735424042e-01  -5.412290692329e-01   2.450800240040e-01   1.263170409948e-02  -8.944777250290e-01 
 -3.371727094054e-02   1.740504801273e-02  -7.281925678253e-01   1.562722027302e-01  -2.166184131056e-03  -4.657959640026e-01  -1.620977520943e-01  -4.466021433473e-02  -6.378477811813e-01 
  2.294341288507e-02  -1.557853370905e-01  -7.349543571472e-01   2.945573814213e-02  -5.541861653328e-01  -4.063253104687e-01   2.945573814213e-02  -5.541861653328e-01  -4.063253104687e-01 
  0.000000000000e+00   3.346225246787e-02  -5.313062071800e-01   0.000000000000e+00   3.346225246787e-02  -5.313062071800e-01   2.054672539234e-01   8.288870006800e-02  -4.175232648849e-01 
  4.207172095776e-01  -1.431381702423e-01  -5.568204522133e-01  -2.283642292023e-01  -2.993265353143e-02  -8.181369304657e-01  -3.805083036423e-02   1.317086070776e-01  -7.670138478279e-01 
 -1.963358670473e-01  -2.915506251156e-02  -8.644570112228e-01   3.807973489165e-02  -6.932534277439e-02  -7.336595058441e-01   6.701202690601e-02  -3.851046320051e-03  -2.289428859949e-01 
  6.701202690601e-02  -3.851046320051e-03  -2.289428859949e-01   0.000000000000e+00   1.287425756454e-01  -5.771986246109e-01   0.000000000000e+00   1.287425756454e-01  -5.771986246109e-01 
  2.311802506447e-01   6.917300820351e-02  -6.382055282593e-01   3.432112932205e-01   9.028648585081e-02  -6.214345693588e-01  -1.972589641809e-01  -6.252240389585e-02  -8.932518959045e-02 
  1.506022065878e-01   8.367311954498e-02  -2.989438772202e-01  -4.729168117046e-02   6.257943809032e-02  -6.744241118431e-01  -3.969432413578e-02   8.629263192415e-02  -6.897218227386e-01 
  1.909227520227e-01   7.783001661301e-02  -5.891224145889e-01   1.909227520227e-01   7.783001661301e-02  -5.891224145889e-01   0.000000000000e+00  -6.911059468985e-02  -4.185470938683e-01 
  0.000000000000e+00  -6.911059468985e-02  -4.185470938683e-01   2.408547252417e-01  -7.818902283907e-02  -5.913985371590e-01   6.320748329163e-01   9.086060523987e-02  -7.678807973862e-01 
 -9.205597452819e-03   3.166698664427e-02  -9.252204895020e-01   3.660569190979e-01   2.192277647555e-02  -5.333762764931e-01  -4.131248220801e-02   1.362235751003e-02  -4.752798676491e-01 
  1.049212738872e-01   3.283020257950e-01  -5.787957906723e-01   1.434011161327e-01   2.592918574810e-01  -6.039689183235e-01   1.434011161327e-01   2.592918574810e-01  -6.039689183235e-01 
  0.000000000000e+00   3.780491650105e-02  -5.126225948334e-01   0.000000000000e+00   3.780491650105e-02  -5.126225948334e-01   1.803413331509e-01   8.636545389891e-03  -5.243921875954e-01 
  2.190165668726e-01  -8.583682775497e-02  -8.204610943794e-01   3.202159404755e-01   1.352093815804e-01  -6.622220873833e-01   1.295152902603e-01   8.005850762129e-02  -8.576737642288e-01 
 -4.251246154308e-02   1.405024677515e-01  -7.900817990303e-01   2.098967730999e-01  -1.005343347788e-01  -7.714917659760e-01   2.086816281080e-01  -8.607410639524e-02  -4.651425182819e-01 
  2.086816281080e-01  -8.607410639524e-02  -4.651425182819e-01   0.000000000000e+00   0.000000000000e+00  -9.454809427261e-01   0.000000000000e+00   0.000000000000e+00  -9.454809427261e-01 
  3.331990540028e-01   1.541764591821e-03  -6.472607851028e-01   5.881804227829e-02   0.000000000000e+00  -4.681099355221e-01   2.574578821659e-01   4.493037983775e-02  -3.587302565575e-01 
  9.049231559038e-02   0.000000000000e+00  -5.909044742584e-01  -2.056411802769e-01   0.000000000000e+00  -6.956871747971e-01  -9.440720826387e-02   0.000000000000e+00  -8.044435381889e-01 
  8.875953406096e-02  -1.515506766737e-02  -7.919265627861e-01   8.875953406096e-02  -1.515506766737e-02  -7.919265627861e-01   0.000000000000e+00   0.000000000000e+00  -9.454809427261e-01 
  0.000000000000e+00   0.000000000000e+00  -9.454809427261e-01   3.331990540028e-01   1.541764591821e-03  -6.472607851028e-01   5.881804227829e-02   0.000000000000e+00  -4.681099355221e-01 
  2.574578821659e-01   4.493037983775e-02  -3.587302565575e-01   9.049231559038e-02   0.000000000000e+00  -5.909044742584e-01  -2.056411802769e-01   0.000000000000e+00  -6.956871747971e-01 
 -9.440720826387e-02   0.000000000000e+00  -8.044435381889e-01   8.875953406096e-02  -1.515506766737e-02  -7.919265627861e-01   8.875953406096e-02  -1.515506766737e-02  -7.919265627861e-01 
  0.000000000000e+00   7.418984081596e-03  -1.651588976383e-01   0.000000000000e+00   7.418984081596e-03  -1.651588976383e-01   1.348755657673e-01   3.426161408424e-02   1.174071803689e-02 
  1.712967604399e-01   3.806727007031e-02  -3.427838981152e-01   2.307689636946e-01   3.796462714672e-02  -5.437105298042e-01   0.000000000000e+00   5.627186223865e-02  -1.000000014901e-01 
  3.685753047466e-02   8.864085376263e-02  -4.983411133289e-01   6.230442668311e-04   5.997778475285e-02  -5.164583325386e-01   0.000000000000e+00   8.897885680199e-02  -5.076569914818e-01 
  0.000000000000e+00   8.897885680199e-02  -5.076569914818e-01   0.000000000000e+00   7.418984081596e-03  -1.651588976383e-01   0.000000000000e+00   7.418984081596e-03  -1.651588976383e-01 
  1.348755657673e-01   3.426161408424e-02   1.174071803689e-02   1.712967604399e-01   3.806727007031e-02  -3.427838981152e-01   2.307689636946e-01   3.796462714672e-02  -5.437105298042e-01 
  0.000000000000e+00   5.627186223865e-02  -1.000000014901e-01   3.685753047466e-02   8.864085376263e-02  -4.983411133289e-01   6.230442668311e-04   5.997778475285e-02  -5.164583325386e-01 
  0.000000000000e+00   8.897885680199e-02  -5.076569914818e-01   0.000000000000e+00   8.897885680199e-02  -5.076569914818e-01   0.000000000000e+00   1.048621460795e-01  -2.868178188801e-01 
  0.000000000000e+00   1.048621460795e-01  -2.868178188801e-01   1.484441459179e-01   1.055010035634e-01  -2.090210169554e-01   4.690690338612e-01   5.425111204386e-02  -4.923077523708e-01 
  5.176239013672e-01   1.165073923767e-02  -4.625538289547e-01   2.039880603552e-01   3.104610554874e-02  -4.156450927258e-01   1.460170280188e-02   5.240636691451e-02  -1.000000014901e-01 
  9.267367422581e-03   4.340570047498e-02  -9.518427252769e-01   1.440958492458e-02   2.169107943773e-01   3.652615547180e-01   1.440958492458e-02   2.169107943773e-01   3.652615547180e-01 
  0.000000000000e+00   7.674618810415e-02  -1.916365772486e-01   0.000000000000e+00   7.674618810415e-02  -1.916365772486e-01   1.690794229507e-01   9.145278483629e-03  -1.784024983644e-01 
  4.698970019817e-01   1.814033836126e-02  -4.907581210136e-01   3.280193358660e-02   2.032468095422e-03  -2.270168364048e-01   3.565027713776e-01   2.516702562571e-02  -1.219388246536e-01 
  1.688056066632e-02   0.000000000000e+00  -5.790765285492e-01   2.718634158373e-02  -1.726293191314e-02  -6.868343353271e-01   3.604317829013e-02   4.520572721958e-01  -2.632114887238e-01 
  3.604317829013e-02   4.520572721958e-01  -2.632114887238e-01   0.000000000000e+00  -3.767165914178e-02  -9.007624536753e-02   0.000000000000e+00  -3.767165914178e-02  -9.007624536753e-02 
  1.329988241196e-01   1.000838447362e-02  -6.511725485325e-02   3.443208932877e-01  -3.920170664787e-02  -3.100591599941e-01   1.069554463029e-01  -4.767968505621e-02  -9.734557569027e-02 
  2.046418339014e-01   7.708257436752e-02  -3.997408151627e-01  -1.061005517840e-02  -1.419667527080e-02  -8.940691947937e-01   4.323110356927e-02   2.402223460376e-02  -1.029435038567e+00 
  6.699192523956e-02   3.239388763905e-01  -4.147819876671e-01   6.699192523956e-02   3.239388763905e-01  -4.147819876671e-01   0.000000000000e+00   1.029540300369e-01  -2.111914008856e-01 
  0.000000000000e+00   1.029540300369e-01  -2.111914008856e-01   3.128858804703e-01  -3.108481504023e-02  -1.529490798712e-01   6.701777577400e-01   1.037765108049e-02  -3.160666823387e-01 
  3.811085820198e-01  -2.168575823307e-01   3.422861397266e-01   4.116855561733e-01  -4.976508393884e-02   8.350137621164e-02   2.051411122084e-01   6.537639349699e-02  -6.031385660172e-01 
 -1.143850572407e-02   8.632490038872e-02  -5.655588507652e-01   0.000000000000e+00   1.937535852194e-01  -4.996477961540e-01   0.000000000000e+00   1.937535852194e-01  -4.996477961540e-01 
  0.000000000000e+00  -8.403509110212e-02  -1.423570364714e-01   0.000000000000e+00  -8.403509110212e-02  -1.423570364714e-01   4.413402080536e-01  -1.050305068493e-01  -1.100561544299e-01 
  4.885005950928e-01  -4.735486954451e-02  -2.954559028149e-01   1.725184470415e-01  -2.087139189243e-01   2.969610318542e-02   1.761004924774e-01   3.174452483654e-02  -4.340605735779e-01 
  1.627109944820e-01   4.430170729756e-02  -5.457985401154e-01   1.301764696836e-01   2.432311028242e-01  -5.645333528519e-01  -3.812627494335e-01   0.000000000000e+00  -1.164580106735e+00 
 -3.812627494335e-01   0.000000000000e+00  -1.164580106735e+00   0.000000000000e+00   3.219024837017e-02  -1.598900258541e-01   0.000000000000e+00   3.219024837017e-02  -1.598900258541e-01 
  1.766710281372e-01   3.369282558560e-02  -4.985484108329e-02   2.886645793915e-01  -6.009295955300e-02  -2.666314244270e-01   3.023689687252e-01  -4.093765281141e-03  -4.415466487408e-01 
  2.356812804937e-01   1.835503615439e-02  -5.921258926392e-01   4.755878821015e-02   9.846567362547e-02  -5.761339664459e-01  -3.978478610516e-01  -2.029427886009e-02  -4.668942987919e-01 
 -3.386612832546e-01  -6.750764697790e-02  -1.698633432388e+00  -3.386612832546e-01  -6.750764697790e-02  -1.698633432388e+00   0.000000000000e+00   0.000000000000e+00  -2.862468659878e-01 
  0.000000000000e+00   0.000000000000e+00  -2.862468659878e-01   4.013417288661e-02   0.000000000000e+00  -2.006954252720e-01   1.844012588263e-01  -1.319195516407e-02  -3.633781075478e-01 
  2.833883464336e-01   0.000000000000e+00  -4.204572439194e-01   2.716064453125e-01   4.511161532719e-04  -4.263481795788e-01  -1.683229207993e-01  -8.809233549982e-04  -3.780494034290e-01 
 -1.290472447872e-01  -1.847660355270e-02  -6.102845668793e-01  -3.138437271118e-01   0.000000000000e+00  -1.000000014901e-01  -3.138437271118e-01   0.000000000000e+00  -1.000000014901e-01 
  0.000000000000e+00   0.000000000000e+00  -2.862468659878e-01   0.000000000000e+00   0.000000000000e+00  -2.862468659878e-01   4.013417288661e-02   0.000000000000e+00  -2.006954252720e-01 
  1.844012588263e-01  -1.319195516407e-02  -3.633781075478e-01   2.833883464336e-01   0.000000000000e+00  -4.204572439194e-01   2.716064453125e-01   4.511161532719e-04  -4.263481795788e-01 
 -1.683229207993e-01  -8.809233549982e-04  -3.780494034290e-01  -1.290472447872e-01  -1.847660355270e-02  -6.102845668793e-01  -3.138437271118e-01   0.000000000000e+00  -1.000000014901e-01 
 -3.138437271118e-01   0.000000000000e+00  -1.000000014901e-01   0.000000000000e+00   1.913037896156e-02  -4.675993621349e-01   0.000000000000e+00   1.913037896156e-02  -4.675993621349e-01 
  1.501672863960e-01   4.629219695926e-02  -1.410523056984e-01  -1.721489667892e+00   0.000000000000e+00   9.678620845079e-04  -2.886087298393e-01   2.057307213545e-02  -3.036812841892e-01 
  1.314165830612e+00   6.091595813632e-02  -1.000000014901e-01   1.874028705060e-02   7.052361220121e-02  -5.345755815506e-01   1.874028705060e-02   6.361589580774e-02  -5.164583325386e-01 
  0.000000000000e+00   9.917806833982e-02  -4.864231944084e-01   0.000000000000e+00   9.917806833982e-02  -4.864231944084e-01   0.000000000000e+00   1.913037896156e-02  -4.675993621349e-01 
  0.000000000000e+00   1.913037896156e-02  -4.675993621349e-01   1.501672863960e-01   4.629219695926e-02  -1.410523056984e-01  -1.721489667892e+00   0.000000000000e+00   9.678620845079e-04 
 -2.886087298393e-01   2.057307213545e-02  -3.036812841892e-01   1.314165830612e+00   6.091595813632e-02  -1.000000014901e-01   1.874028705060e-02   7.052361220121e-02  -5.345755815506e-01 
  1.874028705060e-02   6.361589580774e-02  -5.164583325386e-01   0.000000000000e+00   9.917806833982e-02  -4.864231944084e-01   0.000000000000e+00   9.917806833982e-02  -4.864231944084e-01 
  0.000000000000e+00   3.758107498288e-02  -2.503412663937e-01   0.000000000000e+00   3.758107498288e-02  -2.503412663937e-01   1.467667073011e-01   8.848969638348e-02   1.558017283678e-01 
 -4.264981448650e-01   2.185648493469e-02  -1.187072396278e-01   6.496942043304e-01   0.000000000000e+00  -4.651558995247e-01   0.000000000000e+00   5.029231309891e-02  -2.381308972836e-01 
  1.611031778157e-02   7.052361220121e-02  -1.000000014901e-01   1.438719592988e-02   5.826748535037e-02  -5.412621498108e-01   2.266956726089e-03   1.588070988655e-01   1.497855931520e-01 
  2.266956726089e-03   1.588070988655e-01   1.497855931520e-01   0.000000000000e+00  -4.986497573555e-03  -3.773577511311e-01   0.000000000000e+00  -4.986497573555e-03  -3.773577511311e-01 
  1.255138963461e-01  -4.481182992458e-02  -9.904837608337e-02   3.153044581413e-01   1.469156984240e-02  -2.490073293447e-01   1.864956468344e-01   8.290244266391e-03  -2.423397451639e-01 
  2.660542130470e-01   2.365739643574e-02  -1.000000014901e-01   2.391171455383e-02   0.000000000000e+00  -2.285355627537e-01   5.870637018234e-03   9.964371100068e-03  -6.175851225853e-01 
 -1.729018054903e-02   0.000000000000e+00  -1.000000014901e-01  -1.729018054903e-02   0.000000000000e+00  -1.000000014901e-01   0.000000000000e+00  -6.161487544887e-05  -4.576613903046e-01 
  0.000000000000e+00  -6.161487544887e-05  -4.576613903046e-01   1.573296785355e-01   4.292614385486e-02  -3.547179400921e-01   3.949772417545e-01   2.822824940085e-02  -1.295251250267e+00 
  5.139610543847e-02   1.135128177702e-02  -2.620347440243e-01   1.713284254074e-01  -1.218916266225e-03  -2.646629512310e-01   1.612901091576e-01   1.050796546042e-02  -8.183811306953e-01 
 -1.142244115472e-01   4.575578868389e-02  -9.414033293724e-01  -2.181610465050e-02   0.000000000000e+00  -1.000000014901e-01  -2.181610465050e-02   0.000000000000e+00  -1.000000014901e-01 
  0.000000000000e+00   1.547517031431e-01  -3.948438763618e-01   0.000000000000e+00   1.547517031431e-01  -3.948438763618e-01   2.223711907864e-01   9.914019703865e-02  -3.419527113438e-01 
  5.186245441437e-01   2.646466903389e-02  -1.862134337425e-01   1.127009745687e-02   3.536151349545e-02  -1.457687616348e-01   2.572233676910e-01   2.838963083923e-02  -2.036572247744e-01 
  2.156712412834e-01   4.230526834726e-02  -5.438079237938e-01  -2.092732638121e-01   8.492986857891e-02  -2.847402691841e-01  -3.529276251793e-01   0.000000000000e+00  -1.000000014901e-01 