# vtk DataFile Version 2.0
Written using VisIt writer
ASCII
DATASET RECTILINEAR_GRID
DIMENSIONS 10 10 10
X_COORDINATES 10 float
  0.000000000000e+00   5.000000000000e-01   1.000000000000e+00   1.500000000000e+00   2.000000000000e+00   2.500000000000e+00   3.000000000000e+00   3.500000000000e+00   4.000000000000e+00 
  4.500000000000e+00 
Y_COORDINATES 10 float
  0.000000000000e+00   5.000000000000e-01   1.000000000000e+00   1.500000000000e+00   2.000000000000e+00   2.500000000000e+00   3.000000000000e+00   3.500000000000e+00   4.000000000000e+00 
  4.500000000000e+00 
Z_COORDINATES 10 float
  0.000000000000e+00   5.000000000000e-01   1.000000000000e+00   1.500000000000e+00   2.000000000000e+00   2.500000000000e+00   3.000000000000e+00   3.500000000000e+00   4.000000000000e+00 
  4.500000000000e+00 
CELL_DATA 729
POINT_DATA 1000
VECTORS velocity float
  0.000000000000e+00  -2.293635904789e-01  -3.290983438492e-01   6.409009434272e-10   2.330132531370e-09   2.665739184948e-09   2.685248091439e-06   6.409978658972e-10   6.235323368742e-10 
  1.036634519696e-01  -2.451711446047e-01  -3.647108674049e-01   6.700733301557e-10   8.142401683453e-13   1.357144891258e-19   6.337064206718e-10   1.724700808836e-07   6.410545982938e-10 
 -1.230420619249e-01  -2.432576864958e-01  -3.912610411644e-01   2.640485945449e-06   6.701442178958e-10   6.409694996989e-10   1.680083369138e-04   2.330132531370e-09   6.664347962371e-10 
 -1.289980262518e-01  -2.818962931633e-01  -3.582628369331e-01   0.000000000000e+00  -2.293635904789e-01  -3.290983438492e-01   6.409690556097e-10   8.142401683453e-13   1.356847106238e-19 
 -3.244468942285e-02  -2.598974704742e-01  -3.260216414928e-01   1.036634519696e-01  -2.451711446047e-01  -3.647108674049e-01   6.409689445874e-10   6.409690556097e-10   6.409690556097e-10 
 -7.891404442489e-03  -2.051609903574e-01  -3.961514830589e-01  -1.230420619249e-01  -2.432576864958e-01  -3.912610411644e-01   1.356847106238e-19   6.336922098171e-10   6.409690556097e-10 
 -1.289980262518e-01  -2.818962931633e-01  -3.582628369331e-01  -1.289980262518e-01  -2.818962931633e-01  -3.582628369331e-01   0.000000000000e+00   2.487674951553e-01  -3.434745371342e-01 
  0.000000000000e+00   2.487674951553e-01  -3.434745371342e-01  -1.227658465505e-01   1.406393796206e-01  -3.419284820557e-01  -1.056575030088e-02   3.325937315822e-02  -3.468019664288e-01 
 -6.975702196360e-02   9.675939567387e-03  -3.520485758781e-01   7.660173624754e-02   4.469900950789e-02  -3.630884289742e-01  -5.463723093271e-02   1.216488555074e-01  -3.733942508698e-01 
  4.162311181426e-02   2.505773901939e-01  -3.847291171551e-01  -1.249967664480e-01   2.670906782150e-01  -3.899259865284e-01  -1.249967664480e-01   2.670906782150e-01  -3.899259865284e-01 
  0.000000000000e+00  -4.375212267041e-02  -3.415439128876e-01   0.000000000000e+00  -4.375212267041e-02  -3.415439128876e-01  -6.518135219812e-02  -2.364170737565e-02  -3.504910171032e-01 
  6.617136299610e-02   8.582030981779e-02  -3.936300873756e-01  -8.764174580574e-02   3.447153046727e-02  -4.017447829247e-01  -6.952479481697e-02  -1.218437924981e-01  -3.759637773037e-01 
 -1.375524997711e-01  -1.471147537231e-01  -3.920430541039e-01   8.436974883080e-02  -1.004491820931e-01  -3.788134753704e-01  -9.872569888830e-02  -9.102136641741e-02  -3.780946433544e-01 
 -9.872569888830e-02  -9.102136641741e-02  -3.780946433544e-01   0.000000000000e+00  -7.783181220293e-02  -3.303913474083e-01   0.000000000000e+00  -7.783181220293e-02  -3.303913474083e-01 
 -1.435044705868e-01  -1.345793753862e-01  -3.619827032089e-01   1.215335577726e-01  -8.433902263641e-02  -3.700587749481e-01  -8.595353923738e-03  -1.842433772981e-02  -3.737059533596e-01 
  6.419216841459e-02   1.237805113196e-01  -3.910339176655e-01  -1.073218360543e-01   1.298640668392e-01  -4.038111567497e-01  -8.276456594467e-02  -8.259923011065e-02  -3.745443522930e-01 
 -1.682462841272e-01  -1.382938772440e-01  -3.798771500587e-01  -1.682462841272e-01  -1.382938772440e-01  -3.798771500587e-01   0.000000000000e+00   1.181777119637e-01  -3.589267432690e-01 
  0.000000000000e+00   1.181777119637e-01  -3.589267432690e-01  -1.129647120833e-01   1.320081055164e-01  -3.719794154167e-01  -7.730176299810e-02  -9.855902194977e-02  -3.650988936424e-01 
 -1.194807216525e-01  -1.474353373051e-01  -3.722302317619e-01   1.191442608833e-01  -9.621262550354e-02  -3.660547435284e-01  -8.857653476298e-03  -2.544304355979e-03  -3.767663836479e-01 
  4.557318240404e-02   1.332684457302e-01  -3.931168317795e-01  -1.190153136849e-01   1.823601722717e-01  -3.982895612717e-01  -1.190153136849e-01   1.823601722717e-01  -3.982895612717e-01 
  0.000000000000e+00  -9.992165118456e-02  -3.228835165501e-01   0.000000000000e+00  -9.992165118456e-02  -3.228835165501e-01  -3.549987077713e-02  -1.052531879395e-02  -3.376937806606e-01 
  6.588187068701e-02   1.412373632193e-01  -3.852946162224e-01  -1.190846711397e-01   1.203719303012e-01  -3.972613811493e-01  -6.975334137678e-02  -1.035512387753e-01  -3.720689415932e-01 
 -1.029249504209e-01  -1.458842903376e-01  -3.683116137981e-01   5.256525799632e-02  -1.321503818035e-01  -3.558779358864e-01  -1.142571344972e-01  -1.190433278680e-01  -3.573298454285e-01 
 -1.142571344972e-01  -1.190433278680e-01  -3.573298454285e-01   0.000000000000e+00  -1.499641090631e-01  -3.267955183983e-01   0.000000000000e+00  -1.499641090631e-01  -3.267955183983e-01 
 -1.191245540977e-01  -1.479194760323e-01  -3.383077085018e-01   1.352716088295e-01  -6.553654093295e-03  -3.678151071072e-01  -2.511810977012e-03   8.517476916313e-02  -3.825551867485e-01 
  6.400302052498e-02   1.554929763079e-01  -4.021294116974e-01  -1.266862750053e-01   7.464792579412e-02  -4.072621762753e-01  -9.959418326616e-02  -1.353248059750e-01  -3.785226345062e-01 
 -1.402867585421e-01  -1.674830913544e-01  -4.054825007915e-01  -1.402867585421e-01  -1.674830913544e-01  -4.054825007915e-01   0.000000000000e+00   0.000000000000e+00  -3.721640110016e-01 
  0.000000000000e+00   0.000000000000e+00  -3.721640110016e-01  -1.578182280064e-01   0.000000000000e+00  -3.601459860802e-01  -7.126317173243e-02   0.000000000000e+00  -3.246006071568e-01 
 -1.167275682092e-01   0.000000000000e+00  -3.269563913345e-01   2.640859484673e-01   0.000000000000e+00  -3.798231184483e-01   4.843084514141e-02   0.000000000000e+00  -4.345709085464e-01 
  2.453343197703e-02   0.000000000000e+00  -4.620831906796e-01   2.974628238007e-03   0.000000000000e+00  -4.718941748142e-01   2.974628238007e-03   0.000000000000e+00  -4.718941748142e-01 
  0.000000000000e+00   0.000000000000e+00  -3.721640110016e-01   0.000000000000e+00   0.000000000000e+00  -3.721640110016e-01  -1.578182280064e-01   0.000000000000e+00  -3.601459860802e-01 
 -7.126317173243e-02   0.000000000000e+00  -3.246006071568e-01  -1.167275682092e-01   0.000000000000e+00  -3.269563913345e-01   2.640859484673e-01   0.000000000000e+00  -3.798231184483e-01 
  4.843084514141e-02   0.000000000000e+00  -4.345709085464e-01   2.453343197703e-02   0.000000000000e+00  -4.620831906796e-01   2.974628238007e-03   0.000000000000e+00  -4.718941748142e-01 
  2.974628238007e-03   0.000000000000e+00  -4.718941748142e-01   0.000000000000e+00  -2.293635904789e-01  -3.290983438492e-01   0.000000000000e+00  -2.293635904789e-01  -3.290983438492e-01 
 -3.244468942285e-02  -2.598974704742e-01  -3.260216414928e-01   1.036634519696e-01  -2.451711446047e-01  -3.647108674049e-01  -1.299569010735e-02  -2.472675144672e-01  -3.894020318985e-01 
 -7.891404442489e-03  -2.051609903574e-01  -3.961514830589e-01  -1.230420619249e-01  -2.432576864958e-01  -3.912610411644e-01  -3.359325230122e-02  -2.452317625284e-01  -3.630872964859e-01 
 -1.289980262518e-01  -2.818962931633e-01  -3.582628369331e-01  -1.289980262518e-01  -2.818962931633e-01  -3.582628369331e-01   0.000000000000e+00  -2.293635904789e-01  -3.290983438492e-01 
  0.000000000000e+00  -2.293635904789e-01  -3.290983438492e-01  -3.244468942285e-02  -2.598974704742e-01  -3.260216414928e-01   1.036634519696e-01  -2.451711446047e-01  -3.647108674049e-01 
 -1.299569010735e-02  -2.472675144672e-01  -3.894020318985e-01  -7.891404442489e-03  -2.051609903574e-01  -3.961514830589e-01  -1.230420619249e-01  -2.432576864958e-01  -3.912610411644e-01 
 -3.359325230122e-02  -2.452317625284e-01  -3.630872964859e-01  -1.289980262518e-01  -2.818962931633e-01  -3.582628369331e-01  -1.289980262518e-01  -2.818962931633e-01  -3.582628369331e-01 
  0.000000000000e+00   2.487674951553e-01  -3.434745371342e-01   0.000000000000e+00   2.487674951553e-01  -3.434745371342e-01  -1.227658465505e-01   1.406393796206e-01  -3.419284820557e-01 
 -1.056575030088e-02   3.325937315822e-02  -3.468019664288e-01  -6.975702196360e-02   9.675939567387e-03  -3.520485758781e-01   7.660173624754e-02   4.469900950789e-02  -3.630884289742e-01 
 -5.463723093271e-02   1.216488555074e-01  -3.733942508698e-01   4.162311181426e-02   2.505773901939e-01  -3.847291171551e-01  -1.249967664480e-01   2.670906782150e-01  -3.899259865284e-01 
 -1.249967664480e-01   2.670906782150e-01  -3.899259865284e-01   0.000000000000e+00  -4.375212267041e-02  -3.415439128876e-01   0.000000000000e+00  -4.375212267041e-02  -3.415439128876e-01 
 -6.518135219812e-02  -2.364170737565e-02  -3.504910171032e-01   6.617136299610e-02   8.582030981779e-02  -3.936300873756e-01  -8.764174580574e-02   3.447153046727e-02  -4.017447829247e-01 
 -6.952479481697e-02  -1.218437924981e-01  -3.759637773037e-01  -1.375524997711e-01  -1.471147537231e-01  -3.920430541039e-01   8.436974883080e-02  -1.004491820931e-01  -3.788134753704e-01 
 -9.872569888830e-02  -9.102136641741e-02  -3.780946433544e-01  -9.872569888830e-02  -9.102136641741e-02  -3.780946433544e-01   0.000000000000e+00  -7.783181220293e-02  -3.303913474083e-01 
  0.000000000000e+00  -7.783181220293e-02  -3.303913474083e-01  -1.435044705868e-01  -1.345793753862e-01  -3.619827032089e-01   1.215335577726e-01  -8.433902263641e-02  -3.700587749481e-01 
 -8.595353923738e-03  -1.842433772981e-02  -3.737059533596e-01   6.419216841459e-02   1.237805113196e-01  -3.910339176655e-01  -1.073218360543e-01   1.298640668392e-01  -4.038111567497e-01 
 -8.276456594467e-02  -8.259923011065e-02  -3.745443522930e-01  -1.682462841272e-01  -1.382938772440e-01  -3.798771500587e-01  -1.682462841272e-01  -1.382938772440e-01  -3.798771500587e-01 
  0.000000000000e+00   1.181777119637e-01  -3.589267432690e-01   0.000000000000e+00   1.181777119637e-01  -3.589267432690e-01  -1.129647120833e-01   1.320081055164e-01  -3.719794154167e-01 
 -7.730176299810e-02  -9.855902194977e-02  -3.650988936424e-01  -1.194807216525e-01  -1.474353373051e-01  -3.722302317619e-01   1.191442608833e-01  -9.621262550354e-02  -3.660547435284e-01 
 -8.857653476298e-03  -2.544304355979e-03  -3.767663836479e-01   4.557318240404e-02   1.332684457302e-01  -3.931168317795e-01  -1.190153136849e-01   1.823601722717e-01  -3.982895612717e-01 
 -1.190153136849e-01   1.823601722717e-01  -3.982895612717e-01   0.000000000000e+00  -9.992165118456e-02  -3.228835165501e-01   0.000000000000e+00  -9.992165118456e-02  -3.228835165501e-01 
 -3.549987077713e-02  -1.052531879395e-02  -3.376937806606e-01   6.588187068701e-02   1.412373632193e-01  -3.852946162224e-01  -1.190846711397e-01   1.203719303012e-01  -3.972613811493e-01 
 -6.975334137678e-02  -1.035512387753e-01  -3.720689415932e-01  -1.029249504209e-01  -1.458842903376e-01  -3.683116137981e-01   5.256525799632e-02  -1.321503818035e-01  -3.558779358864e-01 
 -1.142571344972e-01  -1.190433278680e-01  -3.573298454285e-01  -1.142571344972e-01  -1.190433278680e-01  -3.573298454285e-01   0.000000000000e+00  -1.499641090631e-01  -3.267955183983e-01 
  0.000000000000e+00  -1.499641090631e-01  -3.267955183983e-01  -1.191245540977e-01  -1.479194760323e-01  -3.383077085018e-01   1.352716088295e-01  -6.553654093295e-03  -3.678151071072e-01 
 -2.511810977012e-03   8.517476916313e-02  -3.825551867485e-01   6.400302052498e-02   1.554929763079e-01  -4.021294116974e-01  -1.266862750053e-01   7.464792579412e-02  -4.072621762753e-01 
 -9.959418326616e-02  -1.353248059750e-01  -3.785226345062e-01  -1.402867585421e-01  -1.674830913544e-01  -4.054825007915e-01  -1.402867585421e-01  -1.674830913544e-01  -4.054825007915e-01 
  0.000000000000e+00   0.000000000000e+00  -3.721640110016e-01   0.000000000000e+00   0.000000000000e+00  -3.721640110016e-01  -1.578182280064e-01   0.000000000000e+00  -3.601459860802e-01 
 -7.126317173243e-02   0.000000000000e+00  -3.246006071568e-01  -1.167275682092e-01   0.000000000000e+00  -3.269563913345e-01   2.640859484673e-01   0.000000000000e+00  -3.798231184483e-01 
  4.843084514141e-02   0.000000000000e+00  -4.345709085464e-01   2.453343197703e-02   0.000000000000e+00  -4.620831906796e-01   2.974628238007e-03   0.000000000000e+00  -4.718941748142e-01 
  2.974628238007e-03   0.000000000000e+00  -4.718941748142e-01   0.000000000000e+00   0.000000000000e+00  -3.721640110016e-01   0.000000000000e+00   0.000000000000e+00  -3.721640110016e-01 
 -1.578182280064e-01   0.000000000000e+00  -3.601459860802e-01  -7.126317173243e-02   0.000000000000e+00  -3.246006071568e-01  -1.167275682092e-01   0.000000000000e+00  -3.269563913345e-01 
  2.640859484673e-01   0.000000000000e+00  -3.798231184483e-01   4.843084514141e-02   0.000000000000e+00  -4.345709085464e-01   2.453343197703e-02   0.000000000000e+00  -4.620831906796e-01 
  2.974628238007e-03   0.000000000000e+00  -4.718941748142e-01   2.974628238007e-03   0.000000000000e+00  -4.718941748142e-01   0.000000000000e+00  -2.533279359341e-01  -4.049691557884e-01 
  0.000000000000e+00  -2.533279359341e-01  -4.049691557884e-01  -1.629584841430e-02  -2.582711577415e-01  -4.418416023254e-01   8.949399343692e-04  -2.521007657051e-01  -5.905034542084e-01 
 -4.974284674972e-03  -2.563344836235e-01  -6.272579431534e-01  -1.320791803300e-02  -2.656481564045e-01  -6.665325164795e-01  -2.714016847312e-02  -2.783927619457e-01  -5.601259469986e-01 
 -2.144552767277e-02  -2.849547564983e-01  -5.271651148796e-01  -2.209942601621e-02  -2.943656444550e-01  -4.775091409683e-01  -2.209942601621e-02  -2.943656444550e-01  -4.775091409683e-01 
  0.000000000000e+00  -2.533279359341e-01  -4.049691557884e-01   0.000000000000e+00  -2.533279359341e-01  -4.049691557884e-01  -1.629584841430e-02  -2.582711577415e-01  -4.418416023254e-01 
  8.949399343692e-04  -2.521007657051e-01  -5.905034542084e-01  -4.974284674972e-03  -2.563344836235e-01  -6.272579431534e-01  -1.320791803300e-02  -2.656481564045e-01  -6.665325164795e-01 
 -2.714016847312e-02  -2.783927619457e-01  -5.601259469986e-01  -2.144552767277e-02  -2.849547564983e-01  -5.271651148796e-01  -2.209942601621e-02  -2.943656444550e-01  -4.775091409683e-01 
 -2.209942601621e-02  -2.943656444550e-01  -4.775091409683e-01   0.000000000000e+00   1.180104538798e-01  -5.147382020950e-01   0.000000000000e+00   1.180104538798e-01  -5.147382020950e-01 
 -2.542688325047e-02   9.922312945127e-02  -4.916806221008e-01  -7.643117103726e-03   9.655588865280e-02  -5.459134578705e-01  -1.176260970533e-02   9.083267301321e-02  -5.075717568398e-01 
 -8.065259084105e-03   1.007828041911e-01  -5.981914997101e-01  -1.520042959601e-02   1.094187200069e-01  -5.884063243866e-01  -1.022011414170e-02   1.297727972269e-01  -6.454450488091e-01 
 -1.292847841978e-02   1.380384564400e-01  -6.008170247078e-01  -1.292847841978e-02   1.380384564400e-01  -6.008170247078e-01   0.000000000000e+00  -3.056152723730e-02  -4.976409673691e-01 
  0.000000000000e+00  -3.056152723730e-02  -4.976409673691e-01  -2.639270387590e-02  -3.291498497128e-02  -5.120285153389e-01  -1.083638519049e-02  -3.478982672095e-02  -6.549807190895e-01 
 -1.282596401870e-02  -3.875948861241e-02  -6.245726943016e-01  -1.116421818733e-02  -4.014490544796e-02  -5.832691788673e-01  -1.960062235594e-02  -4.601874947548e-02  -4.839820563793e-01 
 -1.036316156387e-02  -4.746858403087e-02  -5.585144162178e-01  -1.302681397647e-02  -4.445797577500e-02  -5.374527573586e-01  -1.302681397647e-02  -4.445797577500e-02  -5.374527573586e-01 
  0.000000000000e+00   8.905700407922e-03  -4.419011473656e-01   0.000000000000e+00   8.905700407922e-03  -4.419011473656e-01  -2.744668349624e-02   7.277541793883e-03  -4.122733175755e-01 
 -5.949716549367e-03   8.495425805449e-03  -5.617849230766e-01  -8.123299106956e-03   1.193069387227e-02  -5.814125537872e-01  -7.954789325595e-03   1.443194318563e-02  -6.633857488632e-01 
 -1.734133996069e-02   1.734177395701e-02  -6.245915889740e-01  -1.290011033416e-02   1.776350103319e-02  -5.552981495857e-01  -2.122980728745e-02   1.083392743021e-02  -4.537388980389e-01 
 -2.122980728745e-02   1.083392743021e-02  -4.537388980389e-01   0.000000000000e+00   7.477656006813e-03  -5.423851013184e-01   0.000000000000e+00   7.477656006813e-03  -5.423851013184e-01 
 -3.233151882887e-02   3.344716271386e-03  -5.512742400169e-01  -1.022927369922e-02  -2.073511015624e-03  -5.620598196983e-01  -1.697073318064e-02  -1.215152256191e-02  -4.768498837948e-01 
 -1.722998102196e-03  -6.772301625460e-03  -5.596691370010e-01  -1.005082577467e-02   1.883423072286e-03  -5.896943807602e-01  -1.104007381946e-02   4.484270233661e-03  -6.576730012894e-01 
 -1.479384955019e-02   9.056206792593e-03  -6.092696189880e-01  -1.479384955019e-02   9.056206792593e-03  -6.092696189880e-01   0.000000000000e+00  -1.284518931061e-02  -4.782629609108e-01 
  0.000000000000e+00  -1.284518931061e-02  -4.782629609108e-01  -2.205304615200e-02  -1.394249266014e-03  -5.161026120186e-01  -7.560045458376e-03   2.815486863256e-03  -6.632947325706e-01 
 -1.206560898572e-02   7.759541273117e-03  -6.212546825409e-01  -5.263888742775e-03   5.562559235841e-03  -5.517807006836e-01  -1.979106664658e-02  -4.721563775092e-03  -4.831861555576e-01 
 -1.123361010104e-02  -6.366864312440e-03  -5.391320586205e-01  -1.272340305150e-02  -4.455797374249e-03  -4.978532791138e-01  -1.272340305150e-02  -4.455797374249e-03  -4.978532791138e-01 
  0.000000000000e+00  -1.546642836183e-02  -4.040987193584e-01   0.000000000000e+00  -1.546642836183e-02  -4.040987193584e-01  -2.523480914533e-02  -1.364930719137e-02  -3.993408381939e-01 
  8.624007459730e-04  -6.825927644968e-03  -5.729929804802e-01   1.858175033703e-03   5.753259640187e-03  -6.021008491516e-01   3.006424056366e-03   9.829497896135e-03  -6.766428351402e-01 
 -1.536464784294e-02   1.101451646537e-02  -6.249276995659e-01  -1.684100553393e-02   6.702355109155e-03  -5.271103978157e-01  -1.510944776237e-02   3.963516559452e-03  -4.206367731094e-01 
 -1.510944776237e-02   3.963516559452e-03  -4.206367731094e-01   0.000000000000e+00   0.000000000000e+00  -5.254402756691e-01   0.000000000000e+00   0.000000000000e+00  -5.254402756691e-01 
 -3.751307725906e-02   0.000000000000e+00  -5.027141571045e-01  -5.688088946044e-03   0.000000000000e+00  -5.291777253151e-01  -1.004656427540e-03   0.000000000000e+00  -4.468899369240e-01 
  2.137886732817e-02   0.000000000000e+00  -6.100259423256e-01  -2.392918831902e-04   0.000000000000e+00  -7.110493183136e-01  -1.498606521636e-02   0.000000000000e+00  -7.135513424873e-01 
 -6.303235422820e-03   0.000000000000e+00  -6.998979449272e-01  -6.303235422820e-03   0.000000000000e+00  -6.998979449272e-01   0.000000000000e+00   0.000000000000e+00  -5.254402756691e-01 
  0.000000000000e+00   0.000000000000e+00  -5.254402756691e-01  -3.751307725906e-02   0.000000000000e+00  -5.027141571045e-01  -5.688088946044e-03   0.000000000000e+00  -5.291777253151e-01 
 -1.004656427540e-03   0.000000000000e+00  -4.468899369240e-01   2.137886732817e-02   0.000000000000e+00  -6.100259423256e-01  -2.392918831902e-04   0.000000000000e+00  -7.110493183136e-01 
 -1.498606521636e-02   0.000000000000e+00  -7.135513424873e-01  -6.303235422820e-03   0.000000000000e+00  -6.998979449272e-01  -6.303235422820e-03   0.000000000000e+00  -6.998979449272e-01 
  0.000000000000e+00  -2.101441621780e-01  -4.090826809406e-01   0.000000000000e+00  -2.101441621780e-01  -4.090826809406e-01  -1.107504963875e-02  -2.164915502071e-01  -4.899279773235e-01 
  4.304196685553e-03  -2.171332389116e-01  -5.682042241096e-01  -1.645133364946e-03  -2.185268253088e-01  -5.630749464035e-01  -8.228646591306e-03  -2.187875360250e-01  -5.591303110123e-01 
 -2.512327954173e-02  -2.264645248652e-01  -5.608919858932e-01  -1.386084407568e-02  -2.310174852610e-01  -5.565581321716e-01  -1.509148906916e-02  -2.372725605965e-01  -5.516669750214e-01 
 -1.509148906916e-02  -2.372725605965e-01  -5.516669750214e-01   0.000000000000e+00  -2.101441621780e-01  -4.090826809406e-01   0.000000000000e+00  -2.101441621780e-01  -4.090826809406e-01 
 -1.107504963875e-02  -2.164915502071e-01  -4.899279773235e-01   4.304196685553e-03  -2.171332389116e-01  -5.682042241096e-01  -1.645133364946e-03  -2.185268253088e-01  -5.630749464035e-01 
 -8.228646591306e-03  -2.187875360250e-01  -5.591303110123e-01  -2.512327954173e-02  -2.264645248652e-01  -5.608919858932e-01  -1.386084407568e-02  -2.310174852610e-01  -5.565581321716e-01 
 -1.509148906916e-02  -2.372725605965e-01  -5.516669750214e-01  -1.509148906916e-02  -2.372725605965e-01  -5.516669750214e-01   0.000000000000e+00   9.158495813608e-02  -4.173600971699e-01 
  0.000000000000e+00   9.158495813608e-02  -4.173600971699e-01  -2.054151333869e-02   7.799443602562e-02  -4.946774244308e-01  -5.042173899710e-03   7.702818512917e-02  -5.731878280640e-01 
 -9.695227257907e-03   7.098766416311e-02  -5.729581713676e-01  -5.270132794976e-03   7.598183304071e-02  -5.677442550659e-01  -1.404820755124e-02   8.034672588110e-02  -5.649458169937e-01 
 -2.668939298019e-03   9.379810094833e-02  -5.569323301315e-01  -1.187114231288e-02   9.905687719584e-02  -5.545647740364e-01  -1.187114231288e-02   9.905687719584e-02  -5.545647740364e-01 
  0.000000000000e+00  -3.161893039942e-02  -4.135830998421e-01   0.000000000000e+00  -3.161893039942e-02  -4.135830998421e-01  -1.724879257381e-02  -2.761822380126e-02  -4.892211854458e-01 
 -1.599170733243e-03  -2.181765250862e-02  -5.573344230652e-01  -1.089882105589e-02  -2.376296371222e-02  -5.553303360939e-01  -1.218496076763e-02  -3.236718103290e-02  -5.588911175728e-01 
 -1.792758889496e-02  -3.889765962958e-02  -5.536895394325e-01  -8.562417700887e-03  -4.488842561841e-02  -5.525881648064e-01  -1.238813716918e-02  -4.518793150783e-02  -5.522667765617e-01 
 -1.238813716918e-02  -4.518793150783e-02  -5.522667765617e-01   0.000000000000e+00   7.959662936628e-03  -4.143860042095e-01   0.000000000000e+00   7.959662936628e-03  -4.143860042095e-01 
 -2.023663558066e-02   4.186074249446e-03  -4.832827448845e-01  -5.154630169272e-03   3.313253910164e-05  -5.628520250320e-01  -6.112517323345e-03   4.786860197783e-03  -5.666235089302e-01 
  1.939874928212e-04   1.630278117955e-02  -5.577989220619e-01  -1.270364597440e-02   2.092968113720e-02  -5.523880720139e-01  -1.506337244064e-02   1.482266094536e-02  -5.575590133667e-01 
 -1.786411926150e-02   1.069882791489e-02  -5.486555695534e-01  -1.786411926150e-02   1.069882791489e-02  -5.486555695534e-01   0.000000000000e+00   7.539620157331e-03  -4.166398942471e-01 
  0.000000000000e+00   7.539620157331e-03  -4.166398942471e-01  -1.867987029254e-02   8.083512075245e-03  -4.872417151928e-01  -1.159295346588e-02   8.431540336460e-04  -5.659272074699e-01 
 -1.527066342533e-02  -9.711752645671e-03  -5.615059137344e-01  -3.581032855436e-03  -1.377701107413e-02  -5.630430579185e-01  -5.434980615973e-03  -3.529865527526e-03  -5.630767345428e-01 
 -2.243760041893e-03   8.297943510115e-03  -5.526128411293e-01  -1.195525936782e-02   1.332642510533e-02  -5.485358238220e-01  -1.195525936782e-02   1.332642510533e-02  -5.485358238220e-01 
  0.000000000000e+00  -1.647079735994e-02  -4.174623787403e-01   0.000000000000e+00  -1.647079735994e-02  -4.174623787403e-01  -1.227470673621e-02  -6.719103083014e-03  -4.934815168381e-01 
  2.730618230999e-03   8.525268174708e-03  -5.608289837837e-01  -8.773298002779e-03   1.410902384669e-02  -5.565910339355e-01  -9.862531907856e-03   7.903887890279e-03  -5.639613270760e-01 
 -1.597078889608e-02  -3.752586897463e-03  -5.636495947838e-01  -1.011205930263e-02  -1.229490060359e-02  -5.609452724457e-01  -1.174328848720e-02  -1.255828700960e-02  -5.554355978966e-01 
 -1.174328848720e-02  -1.255828700960e-02  -5.554355978966e-01   0.000000000000e+00  -9.392296895385e-03  -4.120754599571e-01   0.000000000000e+00  -9.392296895385e-03  -4.120754599571e-01 
 -1.971990056336e-02  -1.396271772683e-02  -4.853853881359e-01   7.889994885772e-04  -1.390066556633e-02  -5.659089684486e-01   3.486906411126e-03   1.018976909108e-03  -5.674393177032e-01 
  1.131919771433e-02   1.742504164577e-02  -5.577274560928e-01  -8.816498331726e-03   1.911856979132e-02  -5.524517297745e-01  -1.877863146365e-02   1.054048258811e-02  -5.575197935104e-01 
 -1.163524016738e-02   9.351413697004e-03  -5.383132100105e-01  -1.163524016738e-02   9.351413697004e-03  -5.383132100105e-01   0.000000000000e+00   0.000000000000e+00  -4.139612317085e-01 
  0.000000000000e+00   0.000000000000e+00  -4.139612317085e-01  -2.934563159943e-02   0.000000000000e+00  -4.882961213589e-01  -1.357468962669e-02   0.000000000000e+00  -5.722321271896e-01 
 -1.064033363946e-03   0.000000000000e+00  -5.642447471619e-01   2.583094127476e-02   0.000000000000e+00  -5.596557259560e-01   1.227510534227e-02   0.000000000000e+00  -5.528854131699e-01 
 -7.286866195500e-03   0.000000000000e+00  -5.438086986542e-01  -1.942257629707e-03   0.000000000000e+00  -5.313148498535e-01  -1.942257629707e-03   0.000000000000e+00  -5.313148498535e-01 
  0.000000000000e+00   0.000000000000e+00  -4.139612317085e-01   0.000000000000e+00   0.000000000000e+00  -4.139612317085e-01  -2.934563159943e-02   0.000000000000e+00  -4.882961213589e-01 
 -1.357468962669e-02   0.000000000000e+00  -5.722321271896e-01  -1.064033363946e-03   0.000000000000e+00  -5.642447471619e-01   2.583094127476e-02   0.000000000000e+00  -5.596557259560e-01 
  1.227510534227e-02   0.000000000000e+00  -5.528854131699e-01  -7.286866195500e-03   0.000000000000e+00  -5.438086986542e-01  -1.942257629707e-03   0.000000000000e+00  -5.313148498535e-01 
 -1.942257629707e-03   0.000000000000e+00  -5.313148498535e-01   0.000000000000e+00  -1.653244942427e-01  -3.942900896072e-01   0.000000000000e+00  -1.653244942427e-01  -3.942900896072e-01 
 -2.668431960046e-03  -1.658498346806e-01  -4.648242890835e-01  -2.582815475762e-03  -1.664700955153e-01  -5.467088818550e-01  -4.529306199402e-03  -1.681201457977e-01  -5.502739548683e-01 
 -7.997568696737e-03  -1.708367168903e-01  -5.529155135155e-01  -7.932470180094e-03  -1.741098016500e-01  -5.406959056854e-01  -7.692052517086e-03  -1.770087778568e-01  -5.323216319084e-01 
 -4.101666621864e-03  -1.788696497679e-01  -5.231403708458e-01  -4.101666621864e-03  -1.788696497679e-01  -5.231403708458e-01   0.000000000000e+00  -1.653244942427e-01  -3.942900896072e-01 
  0.000000000000e+00  -1.653244942427e-01  -3.942900896072e-01  -2.668431960046e-03  -1.658498346806e-01  -4.648242890835e-01  -2.582815475762e-03  -1.664700955153e-01  -5.467088818550e-01 
 -4.529306199402e-03  -1.681201457977e-01  -5.502739548683e-01  -7.997568696737e-03  -1.708367168903e-01  -5.529155135155e-01  -7.932470180094e-03  -1.741098016500e-01  -5.406959056854e-01 
 -7.692052517086e-03  -1.770087778568e-01  -5.323216319084e-01  -4.101666621864e-03  -1.788696497679e-01  -5.231403708458e-01  -4.101666621864e-03  -1.788696497679e-01  -5.231403708458e-01 
  0.000000000000e+00   5.496389046311e-02  -4.099744558334e-01   0.000000000000e+00   5.496389046311e-02  -4.099744558334e-01  -4.296047613025e-03   4.890957474709e-02  -4.762417376041e-01 
 -3.730248194188e-03   5.427518486977e-02  -5.511547327042e-01  -4.590413067490e-03   5.769715830684e-02  -5.469622612000e-01  -7.913296110928e-03   5.581048876047e-02  -5.495586991310e-01 
 -7.225255481899e-03   5.302073061466e-02  -5.444009900093e-01  -6.984631996602e-03   5.517140403390e-02  -5.470134615898e-01  -2.977079479024e-03   5.649771541357e-02  -5.425847172737e-01 
 -2.977079479024e-03   5.649771541357e-02  -5.425847172737e-01   0.000000000000e+00  -2.054401487112e-02  -4.007814824581e-01   0.000000000000e+00  -2.054401487112e-02  -4.007814824581e-01 
 -5.101292394102e-03  -2.201066911221e-02  -4.694684743881e-01  -7.639253046364e-03  -2.598124928772e-02  -5.505614876747e-01  -4.877151921391e-03  -2.612919174135e-02  -5.485439300537e-01 
 -5.164573434740e-03  -2.299624867737e-02  -5.434793233871e-01  -6.353733129799e-03  -2.176164276898e-02  -5.330959558487e-01  -6.677673198283e-03  -2.122682891786e-02  -5.304285883904e-01 
 -2.970527857542e-03  -2.121913805604e-02  -5.235985517502e-01  -2.970527857542e-03  -2.121913805604e-02  -5.235985517502e-01   0.000000000000e+00   5.948433652520e-03  -4.019007980824e-01 
  0.000000000000e+00   5.948433652520e-03  -4.019007980824e-01  -5.017244257033e-03   6.005068309605e-03  -4.692606925964e-01  -4.996546544135e-03   7.516003679484e-03  -5.448647737503e-01 
 -4.978113342077e-03   7.495437748730e-03  -5.427695512772e-01  -7.212867494673e-03   6.418470758945e-03  -5.494843721390e-01  -6.058184430003e-03   6.645266897976e-03  -5.475988984108e-01 
 -5.255256779492e-03   7.344431243837e-03  -5.403955578804e-01  -3.364681731910e-03   7.184299640357e-03  -5.284408926964e-01  -3.364681731910e-03   7.184299640357e-03  -5.284408926964e-01 
  0.000000000000e+00  -9.760185494088e-04  -4.095867574215e-01   0.000000000000e+00  -9.760185494088e-04  -4.095867574215e-01  -5.648287478834e-03  -1.825584447943e-03  -4.786444306374e-01 
 -4.286265000701e-03  -1.226408407092e-03  -5.495789051056e-01  -4.412424750626e-03  -5.080094560981e-04  -5.394241213799e-01  -5.188649985939e-03   1.560482312925e-03  -5.394184589386e-01 
 -5.440330598503e-03   2.301472472027e-03  -5.390378236771e-01  -6.672810297459e-03   1.199694816023e-03  -5.434437990189e-01  -3.178164362907e-03   1.096894615330e-03  -5.392479300499e-01 