# vtk DataFile Version 2.0
Written using VisIt writer
ASCII
DATASET RECTILINEAR_GRID
DIMENSIONS 10 10 10
X_COORDINATES 10 float
  0.000000000000e+00   5.000000000000e-01   1.000000000000e+00   1.500000000000e+00   2.000000000000e+00   2.500000000000e+00   3.000000000000e+00   3.500000000000e+00   4.000000000000e+00 
  4.500000000000e+00 
Y_COORDINATES 10 float
  0.000000000000e+00   5.000000000000e-01   1.000000000000e+00   1.500000000000e+00   2.000000000000e+00   2.500000000000e+00   3.000000000000e+00   3.500000000000e+00   4.000000000000e+00 
  4.500000000000e+00 
Z_COORDINATES 10 float
  0.000000000000e+00   5.000000000000e-01   1.000000000000e+00   1.500000000000e+00   2.000000000000e+00   2.500000000000e+00   3.000000000000e+00   3.500000000000e+00   4.000000000000e+00 
  4.500000000000e+00 
CELL_DATA 729
POINT_DATA 1000
VECTORS velocity float
  0.000000000000e+00  -1.338108479977e-01  -2.425878047943e-01   3.251200000000e+04   0.000000000000e+00   0.000000000000e+00   0.000000000000e+00   0.000000000000e+00   0.000000000000e+00 
  1.515868455172e-01  -6.441646814346e-02  -1.607370525599e-01   0.000000000000e+00   0.000000000000e+00   0.000000000000e+00   0.000000000000e+00   1.431655808000e+09   1.070945600000e+09 
 -3.976660594344e-02  -9.281090646982e-02  -1.631369739771e-01   1.071994176000e+09   0.000000000000e+00   0.000000000000e+00   0.000000000000e+00   0.000000000000e+00   0.000000000000e+00 
  7.589834183455e-02  -1.563926935196e-01  -1.838091462851e-01   0.000000000000e+00  -1.338108479977e-01  -2.425878047943e-01   1.070945600000e+09   0.000000000000e+00   0.000000000000e+00 
  1.789481751621e-02  -1.210429295897e-01  -2.192774713039e-01   1.515868455172e-01  -6.441646814346e-02  -1.607370525599e-01   1.431655808000e+09   1.070945600000e+09   0.000000000000e+00 
  5.163484439254e-02  -4.871869087219e-02  -1.376085728407e-01  -3.976660594344e-02  -9.281090646982e-02  -1.631369739771e-01   0.000000000000e+00   0.000000000000e+00   1.071644672000e+09 
  7.589834183455e-02  -1.563926935196e-01  -1.838091462851e-01   7.589834183455e-02  -1.563926935196e-01  -1.838091462851e-01   0.000000000000e+00   4.072805866599e-02  -2.016538530588e-01 
  0.000000000000e+00   4.072805866599e-02  -2.016538530588e-01  -9.644581587054e-05  -1.238862276077e-01  -2.088675051928e-01   1.126778200269e-01  -2.552535831928e-01  -1.877614557743e-01 
  9.295656532049e-02  -1.914734244347e-01  -1.894683539867e-01   6.051519513130e-02  -4.679529741406e-02  -1.430750638247e-01   3.940265998244e-02  -1.617811247706e-02  -1.412045508623e-01 
  4.555535316467e-02  -1.503620762378e-02  -1.356886625290e-01   1.010290160775e-01   6.724471226335e-03  -1.451236754656e-01   1.010290160775e-01   6.724471226335e-03  -1.451236754656e-01 
  0.000000000000e+00   8.820384740829e-03  -1.941842734814e-01   0.000000000000e+00   8.820384740829e-03  -1.941842734814e-01   1.236833333969e-01  -3.844788298011e-02  -1.842858195305e-01 
  5.600434169173e-02   3.584312973544e-03  -1.599771231413e-01   3.689976781607e-02  -6.687410920858e-02  -1.641792058945e-01   9.723218530416e-02  -1.334466338158e-01  -1.565356999636e-01 
  7.048075646162e-02  -1.194265186787e-01  -1.874166876078e-01   1.816731542349e-01  -1.045106053352e-01  -1.412894129753e-01   1.069038659334e-01  -6.970694661140e-02  -1.424815207720e-01 
  1.069038659334e-01  -6.970694661140e-02  -1.424815207720e-01   0.000000000000e+00   4.060055594891e-03  -2.393466532230e-01   0.000000000000e+00   4.060055594891e-03  -2.393466532230e-01 
 -9.167576581240e-02  -7.538075000048e-02  -2.392209470272e-01   2.153128013015e-02  -9.122998453677e-03  -1.808671504259e-01   5.394100397825e-02  -6.825616955757e-02  -1.632255017757e-01 
  2.557934820652e-02  -6.784487515688e-02  -1.519173681736e-01   3.725096955895e-02   9.023489430547e-03  -1.674221605062e-01   1.299737989902e-01  -4.295478761196e-02  -1.544066667557e-01 
  6.093699485064e-02  -1.424404233694e-01  -1.904185116291e-01   6.093699485064e-02  -1.424404233694e-01  -1.904185116291e-01   0.000000000000e+00  -6.927529349923e-03  -1.955919414759e-01 
  0.000000000000e+00  -6.927529349923e-03  -1.955919414759e-01  -7.450468838215e-03  -2.195908455178e-03  -1.917961239815e-01   1.067039817572e-01   4.966233670712e-02  -1.849058419466e-01 
  1.302399039268e-01  -2.363318577409e-02  -2.080625891685e-01   1.129784584045e-01   4.490063712001e-02  -1.465726345778e-01  -4.818989837077e-04  -2.086112275720e-02  -1.468476504087e-01 
 -4.181902855635e-02  -2.106256596744e-02  -1.388294249773e-01  -4.211279004812e-02  -5.111658480018e-03  -1.504603177309e-01  -4.211279004812e-02  -5.111658480018e-03  -1.504603177309e-01 
  0.000000000000e+00  -2.071992121637e-02  -1.925255805254e-01   0.000000000000e+00  -2.071992121637e-02  -1.925255805254e-01   4.555095359683e-02  -5.724761635065e-02  -1.741256415844e-01 
  5.250158160925e-02   5.752696841955e-02  -1.543509662151e-01   9.783264994621e-02   7.148465514183e-02  -1.572649925947e-01   1.679228544235e-01   6.535036116838e-02  -1.631204187870e-01 
  9.686882048845e-02  -3.879117593169e-02  -1.872176676989e-01   9.105931967497e-02  -2.257404848933e-02  -1.446796059608e-01   7.543596625328e-02   5.620681867003e-02  -1.523394435644e-01 
  7.543596625328e-02   5.620681867003e-02  -1.523394435644e-01   0.000000000000e+00  -4.579219222069e-02  -2.191713750362e-01   0.000000000000e+00  -4.579219222069e-02  -2.191713750362e-01 
  5.597040522844e-03  -1.190973967314e-01  -2.303759157658e-01   1.028692796826e-01  -1.387279015034e-02  -1.694455593824e-01   9.728597849607e-02   2.001705951989e-02  -1.445304453373e-01 
  1.563556194305e-01   1.158864423633e-02  -1.378992050886e-01   5.339436978102e-02   6.486147642136e-02  -1.512826383114e-01   1.087693870068e-01   2.037952840328e-02  -1.593337506056e-01 
  2.234940081835e-01  -2.604623138905e-02  -1.956981122494e-01   2.234940081835e-01  -2.604623138905e-02  -1.956981122494e-01   0.000000000000e+00   0.000000000000e+00  -1.925664097071e-01 
  0.000000000000e+00   0.000000000000e+00  -1.925664097071e-01  -1.023034472018e-02   0.000000000000e+00  -2.091896981001e-01   6.024228408933e-02   0.000000000000e+00  -1.826267838478e-01 
 -3.110741823912e-02   0.000000000000e+00  -2.074130922556e-01   1.943488717079e-01   0.000000000000e+00  -1.270743906498e-01   1.321635842323e-01   0.000000000000e+00  -1.266181319952e-01 
  1.458707302809e-01   0.000000000000e+00  -1.271924227476e-01   3.271388411522e-01   0.000000000000e+00  -1.275777816772e-01   3.271388411522e-01   0.000000000000e+00  -1.275777816772e-01 
  0.000000000000e+00   0.000000000000e+00  -1.925664097071e-01   0.000000000000e+00   0.000000000000e+00  -1.925664097071e-01  -1.023034472018e-02   0.000000000000e+00  -2.091896981001e-01 
  6.024228408933e-02   0.000000000000e+00  -1.826267838478e-01  -3.110741823912e-02   0.000000000000e+00  -2.074130922556e-01   1.943488717079e-01   0.000000000000e+00  -1.270743906498e-01 
  1.321635842323e-01   0.000000000000e+00  -1.266181319952e-01   1.458707302809e-01   0.000000000000e+00  -1.271924227476e-01   3.271388411522e-01   0.000000000000e+00  -1.275777816772e-01 
  3.271388411522e-01   0.000000000000e+00  -1.275777816772e-01   0.000000000000e+00  -1.338108479977e-01  -2.425878047943e-01   0.000000000000e+00  -1.338108479977e-01  -2.425878047943e-01 
  1.789481751621e-02  -1.210429295897e-01  -2.192774713039e-01   1.515868455172e-01  -6.441646814346e-02  -1.607370525599e-01   1.247536167502e-01  -4.575733467937e-02  -1.497157663107e-01 
  5.163484439254e-02  -4.871869087219e-02  -1.376085728407e-01  -3.976660594344e-02  -9.281090646982e-02  -1.631369739771e-01   3.287805616856e-02  -1.080196052790e-01  -1.668724715710e-01 
  7.589834183455e-02  -1.563926935196e-01  -1.838091462851e-01   7.589834183455e-02  -1.563926935196e-01  -1.838091462851e-01   0.000000000000e+00  -1.338108479977e-01  -2.425878047943e-01 
  0.000000000000e+00  -1.338108479977e-01  -2.425878047943e-01   1.789481751621e-02  -1.210429295897e-01  -2.192774713039e-01   1.515868455172e-01  -6.441646814346e-02  -1.607370525599e-01 
  1.247536167502e-01  -4.575733467937e-02  -1.497157663107e-01   5.163484439254e-02  -4.871869087219e-02  -1.376085728407e-01  -3.976660594344e-02  -9.281090646982e-02  -1.631369739771e-01 
  3.287805616856e-02  -1.080196052790e-01  -1.668724715710e-01   7.589834183455e-02  -1.563926935196e-01  -1.838091462851e-01   7.589834183455e-02  -1.563926935196e-01  -1.838091462851e-01 
  0.000000000000e+00   4.072805866599e-02  -2.016538530588e-01   0.000000000000e+00   4.072805866599e-02  -2.016538530588e-01  -9.644581587054e-05  -1.238862276077e-01  -2.088675051928e-01 
  1.126778200269e-01  -2.552535831928e-01  -1.877614557743e-01   9.295656532049e-02  -1.914734244347e-01  -1.894683539867e-01   6.051519513130e-02  -4.679529741406e-02  -1.430750638247e-01 
  3.940265998244e-02  -1.617811247706e-02  -1.412045508623e-01   4.555535316467e-02  -1.503620762378e-02  -1.356886625290e-01   1.010290160775e-01   6.724471226335e-03  -1.451236754656e-01 
  1.010290160775e-01   6.724471226335e-03  -1.451236754656e-01   0.000000000000e+00   8.820384740829e-03  -1.941842734814e-01   0.000000000000e+00   8.820384740829e-03  -1.941842734814e-01 
  1.236833333969e-01  -3.844788298011e-02  -1.842858195305e-01   5.600434169173e-02   3.584312973544e-03  -1.599771231413e-01   3.689976781607e-02  -6.687410920858e-02  -1.641792058945e-01 
  9.723218530416e-02  -1.334466338158e-01  -1.565356999636e-01   7.048075646162e-02  -1.194265186787e-01  -1.874166876078e-01   1.816731542349e-01  -1.045106053352e-01  -1.412894129753e-01 
  1.069038659334e-01  -6.970694661140e-02  -1.424815207720e-01   1.069038659334e-01  -6.970694661140e-02  -1.424815207720e-01   0.000000000000e+00   4.060055594891e-03  -2.393466532230e-01 
  0.000000000000e+00   4.060055594891e-03  -2.393466532230e-01  -9.167576581240e-02  -7.538075000048e-02  -2.392209470272e-01   2.153128013015e-02  -9.122998453677e-03  -1.808671504259e-01 
  5.394100397825e-02  -6.825616955757e-02  -1.632255017757e-01   2.557934820652e-02  -6.784487515688e-02  -1.519173681736e-01   3.725096955895e-02   9.023489430547e-03  -1.674221605062e-01 
  1.299737989902e-01  -4.295478761196e-02  -1.544066667557e-01   6.093699485064e-02  -1.424404233694e-01  -1.904185116291e-01   6.093699485064e-02  -1.424404233694e-01  -1.904185116291e-01 
  0.000000000000e+00  -6.927529349923e-03  -1.955919414759e-01   0.000000000000e+00  -6.927529349923e-03  -1.955919414759e-01  -7.450468838215e-03  -2.195908455178e-03  -1.917961239815e-01 
  1.067039817572e-01   4.966233670712e-02  -1.849058419466e-01   1.302399039268e-01  -2.363318577409e-02  -2.080625891685e-01   1.129784584045e-01   4.490063712001e-02  -1.465726345778e-01 
 -4.818989837077e-04  -2.086112275720e-02  -1.468476504087e-01  -4.181902855635e-02  -2.106256596744e-02  -1.388294249773e-01  -4.211279004812e-02  -5.111658480018e-03  -1.504603177309e-01 
 -4.211279004812e-02  -5.111658480018e-03  -1.504603177309e-01   0.000000000000e+00  -2.071992121637e-02  -1.925255805254e-01   0.000000000000e+00  -2.071992121637e-02  -1.925255805254e-01 
  4.555095359683e-02  -5.724761635065e-02  -1.741256415844e-01   5.250158160925e-02   5.752696841955e-02  -1.543509662151e-01   9.783264994621e-02   7.148465514183e-02  -1.572649925947e-01 
  1.679228544235e-01   6.535036116838e-02  -1.631204187870e-01   9.686882048845e-02  -3.879117593169e-02  -1.872176676989e-01   9.105931967497e-02  -2.257404848933e-02  -1.446796059608e-01 
  7.543596625328e-02   5.620681867003e-02  -1.523394435644e-01   7.543596625328e-02   5.620681867003e-02  -1.523394435644e-01   0.000000000000e+00  -4.579219222069e-02  -2.191713750362e-01 
  0.000000000000e+00  -4.579219222069e-02  -2.191713750362e-01   5.597040522844e-03  -1.190973967314e-01  -2.303759157658e-01   1.028692796826e-01  -1.387279015034e-02  -1.694455593824e-01 
  9.728597849607e-02   2.001705951989e-02  -1.445304453373e-01   1.563556194305e-01   1.158864423633e-02  -1.378992050886e-01   5.339436978102e-02   6.486147642136e-02  -1.512826383114e-01 
  1.087693870068e-01   2.037952840328e-02  -1.593337506056e-01   2.234940081835e-01  -2.604623138905e-02  -1.956981122494e-01   2.234940081835e-01  -2.604623138905e-02  -1.956981122494e-01 
  0.000000000000e+00   0.000000000000e+00  -1.925664097071e-01   0.000000000000e+00   0.000000000000e+00  -1.925664097071e-01  -1.023034472018e-02   0.000000000000e+00  -2.091896981001e-01 
  6.024228408933e-02   0.000000000000e+00  -1.826267838478e-01  -3.110741823912e-02   0.000000000000e+00  -2.074130922556e-01   1.943488717079e-01   0.000000000000e+00  -1.270743906498e-01 
  1.321635842323e-01   0.000000000000e+00  -1.266181319952e-01   1.458707302809e-01   0.000000000000e+00  -1.271924227476e-01   3.271388411522e-01   0.000000000000e+00  -1.275777816772e-01 
  3.271388411522e-01   0.000000000000e+00  -1.275777816772e-01   0.000000000000e+00   0.000000000000e+00  -1.925664097071e-01   0.000000000000e+00   0.000000000000e+00  -1.925664097071e-01 
 -1.023034472018e-02   0.000000000000e+00  -2.091896981001e-01   6.024228408933e-02   0.000000000000e+00  -1.826267838478e-01  -3.110741823912e-02   0.000000000000e+00  -2.074130922556e-01 
  1.943488717079e-01   0.000000000000e+00  -1.270743906498e-01   1.321635842323e-01   0.000000000000e+00  -1.266181319952e-01   1.458707302809e-01   0.000000000000e+00  -1.271924227476e-01 
  3.271388411522e-01   0.000000000000e+00  -1.275777816772e-01   3.271388411522e-01   0.000000000000e+00  -1.275777816772e-01   0.000000000000e+00  -1.617660522461e-01  -1.124733328819e+00 
  0.000000000000e+00  -1.617660522461e-01  -1.124733328819e+00   2.171738147736e-01  -1.033998727798e-01  -1.500859737396e+00   6.157441139221e-01   1.598913222551e-02  -9.668930768967e-01 
  1.007015824318e+00  -8.156178146601e-02  -8.276895284653e-01   1.275107413530e-01  -3.899502009153e-02  -4.417038857937e-01  -3.549055755138e-02  -3.451119735837e-02  -3.686302155256e-02 
 -7.978532910347e-01  -1.423103511333e-01  -3.312753140926e-02  -7.558616995811e-01  -5.420538783073e-02  -1.619085110724e-02  -7.558616995811e-01  -5.420538783073e-02  -1.619085110724e-02 
  0.000000000000e+00  -1.617660522461e-01  -1.124733328819e+00   0.000000000000e+00  -1.617660522461e-01  -1.124733328819e+00   2.171738147736e-01  -1.033998727798e-01  -1.500859737396e+00 
  6.157441139221e-01   1.598913222551e-02  -9.668930768967e-01   1.007015824318e+00  -8.156178146601e-02  -8.276895284653e-01   1.275107413530e-01  -3.899502009153e-02  -4.417038857937e-01 
 -3.549055755138e-02  -3.451119735837e-02  -3.686302155256e-02  -7.978532910347e-01  -1.423103511333e-01  -3.312753140926e-02  -7.558616995811e-01  -5.420538783073e-02  -1.619085110724e-02 
 -7.558616995811e-01  -5.420538783073e-02  -1.619085110724e-02   0.000000000000e+00   2.332827746868e-01  -1.225794315338e+00   0.000000000000e+00   2.332827746868e-01  -1.225794315338e+00 
  2.303606718779e-01   1.476054042578e-01  -7.661955356598e-01   3.233155906200e-01   6.905425339937e-02  -6.832285523415e-01   3.697029054165e-01  -2.245256602764e-01  -1.553261429071e-01 
  5.450470447540e-01  -8.049894124269e-02  -3.670977950096e-01   2.747442759573e-02  -2.163272537291e-02  -5.879544839263e-02   4.920391365886e-02  -1.047421991825e-01  -5.700675249100e-01 
  1.009573042393e-01   6.680458784103e-03  -5.606439709663e-01   1.009573042393e-01   6.680458784103e-03  -5.606439709663e-01   0.000000000000e+00  -2.832392975688e-02  -9.344878196716e-01 
  0.000000000000e+00  -2.832392975688e-02  -9.344878196716e-01   1.987669169903e-01  -7.902523130178e-02  -7.731133699417e-01   2.839641273022e-01   6.979003548622e-02  -8.243633508682e-01 
  6.554639339447e-01  -4.759250283241e-01  -6.473446488380e-01   1.370762109756e+00  -2.426030486822e-01  -4.936775863171e-01  -9.205003082752e-02  -1.294848024845e-01  -6.466786861420e-01 
  7.420881837606e-02  -1.045380160213e-01  -5.146490335464e-01   1.036965027452e-01  -7.140906155109e-02  -5.642226934433e-01   1.036965027452e-01  -7.140906155109e-02  -5.642226934433e-01 
  0.000000000000e+00   4.221765697002e-02  -1.118088126183e+00   0.000000000000e+00   4.221765697002e-02  -1.118088126183e+00   2.451773136854e-01   1.229472383857e-01  -7.430707812309e-01 
  4.206615984440e-01   1.249645128846e-01  -7.031451463699e-01   1.654451340437e-01  -2.194854468107e-01  -8.507525324821e-01  -1.162888184190e-01  -2.105281800032e-01  -1.079319834709e+00 
 -5.388565659523e-01  -1.243266463280e-01  -7.783751487732e-01  -2.434217557311e-02  -6.644149869680e-02  -5.534665584564e-01   9.996606409550e-02  -1.197377890348e-01  -7.659380435944e-01 
  9.996606409550e-02  -1.197377890348e-01  -7.659380435944e-01   0.000000000000e+00   1.606068015099e-02  -8.908519744873e-01   0.000000000000e+00   1.606068015099e-02  -8.908519744873e-01 
  2.245056629181e-01   2.345771044493e-01  -6.106668710709e-01   2.847815454006e-01   2.287062630057e-02  -9.848076701164e-01   5.409069824964e-03   1.446403414011e-01  -6.971663832664e-01 
  7.586246728897e-01   1.570444256067e-01  -3.665545582771e-01   5.368096753955e-02   2.938365750015e-02  -2.748921215534e-01   3.563271164894e-01  -5.056151747704e-02  -4.477970600128e-01 
  2.522702515125e-01  -8.275342173874e-03  -6.963565945625e-01   2.522702515125e-01  -8.275342173874e-03  -6.963565945625e-01   0.000000000000e+00  -1.535546127707e-02  -7.707282304764e-01 
  0.000000000000e+00  -1.535546127707e-02  -7.707282304764e-01   2.551820874214e-01   9.861957281828e-02  -5.837269425392e-01   4.792293906212e-01   6.698102504015e-02  -5.578492879868e-01 
  4.903973042965e-01   4.327639937401e-01  -8.404622673988e-01   7.965492606163e-01   3.280729427934e-02  -4.780156314373e-01   1.620067059994e-01  -3.227883949876e-02   1.404171735048e-01 
  1.918341219425e-01   3.598356246948e-02   2.608163356781e-01  -1.867567300797e-01   4.406012222171e-02  -1.708618164062e+00  -1.867567300797e-01   4.406012222171e-02  -1.708618164062e+00 
  0.000000000000e+00  -2.308949083090e-02  -6.810801029205e-01   0.000000000000e+00  -2.308949083090e-02  -6.810801029205e-01  -6.543711572886e-02  -9.974168986082e-02  -5.973277688026e-01 
  5.141180753708e-01  -6.723161041737e-02  -9.254703521729e-01   6.625470519066e-01   3.597353771329e-02  -1.049082994461e+00   1.496647596359e+00  -2.011841628700e-03  -1.282147765160e+00 
  1.528781890869e+00   2.999593876302e-02  -1.396646976471e+00   4.334739744663e-01   7.335570454597e-02  -3.759686350822e-01   6.346894055605e-02   2.063157856464e-01  -4.440159201622e-01 
  6.346894055605e-02   2.063157856464e-01  -4.440159201622e-01   0.000000000000e+00   0.000000000000e+00  -8.037620782852e-01   0.000000000000e+00   0.000000000000e+00  -8.037620782852e-01 
  3.140819966793e-01   0.000000000000e+00  -9.120809435844e-01   2.093044817448e-01   0.000000000000e+00  -8.633740544319e-01   2.180072814226e-01   1.385614183391e-07  -8.003790378571e-01 
  6.284527778625e-01   0.000000000000e+00   3.924600407481e-02   6.725777983665e-01   6.880638655275e-03  -7.338186353445e-02   2.280795425177e-01   6.276129744947e-03  -7.280758023262e-02 
  2.864768803120e-01   0.000000000000e+00  -7.242222130299e-02   2.864768803120e-01   0.000000000000e+00  -7.242222130299e-02   0.000000000000e+00   0.000000000000e+00  -8.037620782852e-01 
  0.000000000000e+00   0.000000000000e+00  -8.037620782852e-01   3.140819966793e-01   0.000000000000e+00  -9.120809435844e-01   2.093044817448e-01   0.000000000000e+00  -8.633740544319e-01 
  2.180072814226e-01   1.385614183391e-07  -8.003790378571e-01   6.284527778625e-01   0.000000000000e+00   3.924600407481e-02   6.725777983665e-01   6.880638655275e-03  -7.338186353445e-02 
  2.280795425177e-01   6.276129744947e-03  -7.280758023262e-02   2.864768803120e-01   0.000000000000e+00  -7.242222130299e-02   2.864768803120e-01   0.000000000000e+00  -7.242222130299e-02 
  0.000000000000e+00   7.829616963863e-02  -2.451557219028e-01   0.000000000000e+00   7.829616963863e-02  -2.451557219028e-01   7.420631498098e-02  -1.950860954821e-02  -2.412074655294e-01 
  5.937865376472e-01  -2.460863033775e-04   1.353043764830e-01   1.657451152802e+00  -7.059553265572e-02   1.023950576782e+00   0.000000000000e+00  -1.077619642019e-01  -3.463118970394e-01 
  0.000000000000e+00  -1.338421106339e-01  -1.000000014901e-01  -8.321009874344e-01  -1.805073469877e-01  -1.094755083323e-01  -7.590950131416e-01  -1.334728747606e-01  -7.297251373529e-02 
 -7.590950131416e-01  -1.334728747606e-01  -7.297251373529e-02   0.000000000000e+00   7.829616963863e-02  -2.451557219028e-01   0.000000000000e+00   7.829616963863e-02  -2.451557219028e-01 
  7.420631498098e-02  -1.950860954821e-02  -2.412074655294e-01   5.937865376472e-01  -2.460863033775e-04   1.353043764830e-01   1.657451152802e+00  -7.059553265572e-02   1.023950576782e+00 
  0.000000000000e+00  -1.077619642019e-01  -3.463118970394e-01   0.000000000000e+00  -1.338421106339e-01  -1.000000014901e-01  -8.321009874344e-01  -1.805073469877e-01  -1.094755083323e-01 
 -7.590950131416e-01  -1.334728747606e-01  -7.297251373529e-02  -7.590950131416e-01  -1.334728747606e-01  -7.297251373529e-02   0.000000000000e+00   1.786176562309e-01  -8.388226032257e-01 
  0.000000000000e+00   1.786176562309e-01  -8.388226032257e-01   5.676309019327e-02   2.849393337965e-02  -5.237534642220e-01   9.432071447372e-02  -1.052729487419e-01  -5.733924508095e-01 
  2.424884140491e-01  -1.249134987593e-01  -4.331282377243e-01   1.664618402719e-01  -1.949626803398e-01  -4.821899235249e-01  -4.447068274021e-01  -1.008952856064e-01  -1.902042031288e-01 
 -2.697672545910e-01  -1.075013503432e-01  -7.297251373529e-02  -4.377458095551e-01  -9.664228558540e-02  -3.164281845093e-01  -4.377458095551e-01  -9.664228558540e-02  -3.164281845093e-01 
  0.000000000000e+00  -1.096584349871e-01  -1.549647301435e-01   0.000000000000e+00  -1.096584349871e-01  -1.549647301435e-01   1.465884745121e-01  -5.374144390225e-02  -4.954012036324e-01 
  3.261285424232e-01  -7.973040454090e-03  -6.360707283020e-01   4.597077965736e-01  -3.484287858009e-01  -6.534817814827e-01  -8.990988731384e-01  -5.028970241547e-01  -6.173449754715e-01 
 -5.937933921814e-01  -1.040166616440e-01  -4.362282454967e-01  -3.059987723827e-01  -1.063759177923e-01  -4.612460136414e-01  -5.148049443960e-02  -8.743087947369e-02  -5.623100399971e-01 
 -5.148049443960e-02  -8.743087947369e-02  -5.623100399971e-01   0.000000000000e+00   7.734188437462e-02  -4.862127602100e-01   0.000000000000e+00   7.734188437462e-02  -4.862127602100e-01 
  1.293411403894e-01   7.399151474237e-02  -2.456677407026e-01   3.376606702805e-01   9.043343365192e-02  -3.230165243149e-01  -1.004756540060e-01  -1.064110398293e-01  -2.226918488741e-01 
 -7.133365273476e-01   4.590231983457e-04  -6.319676637650e-01  -6.293829679489e-01   5.350981839001e-03  -3.351291716099e-01  -2.948442101479e-01  -1.613126695156e-02  -4.133725166321e-01 
 -1.008699089289e-01  -6.477167457342e-02  -6.749702095985e-01  -1.008699089289e-01  -6.477167457342e-02  -6.749702095985e-01   0.000000000000e+00   2.340261591598e-03  -4.025990664959e-01 
  0.000000000000e+00   2.340261591598e-03  -4.025990664959e-01   4.199390113354e-02   8.757571130991e-02  -3.577772080898e-01   4.750823229551e-02  -2.648901892826e-03  -3.870952725410e-01 
 -3.663964271545e-01   1.880469731987e-02  -9.780981391668e-02  -3.497982621193e-01   1.000183224678e-01  -3.650362491608e-01  -3.495576605201e-02   6.296317279339e-02  -4.653195440769e-01 
  2.527961432934e-01  -2.624845597893e-03  -4.487825036049e-01   2.146478593349e-01   3.936768509448e-03  -9.216506481171e-01   2.146478593349e-01   3.936768509448e-03  -9.216506481171e-01 
  0.000000000000e+00   4.379795119166e-02  -2.829800248146e-01   0.000000000000e+00   4.379795119166e-02  -2.829800248146e-01   1.600629538298e-01   9.656840562820e-02  -3.096394538879e-01 
  3.746272325516e-01   4.972352087498e-02  -4.252458214760e-01   4.155928194523e-01   1.700235456228e-01  -6.739704608917e-01   1.278389692307e-01   3.005956113338e-02  -7.143275737762e-01 
  9.903660416603e-02  -1.452484168112e-02  -5.572262406349e-01   1.579409986734e-01   1.520248129964e-02  -5.487784743309e-01   0.000000000000e+00   6.639160960913e-02  -1.774363517761e+00 
  0.000000000000e+00   6.639160960913e-02  -1.774363517761e+00   0.000000000000e+00  -7.189263706096e-04  -5.457087159157e-01   0.000000000000e+00  -7.189263706096e-04  -5.457087159157e-01 
  5.084977671504e-02   3.816685639322e-03  -3.748798370361e-01   2.705882489681e-01  -3.748435899615e-02  -9.564661979675e-01   4.902009367943e-01   9.432007372379e-02  -1.014117360115e+00 
  8.695576190948e-01   2.035186067224e-02  -1.461204290390e+00   3.159269094467e-01   4.437955841422e-02  -8.291197419167e-01   4.870700836182e-01   3.183116018772e-02  -4.967631995678e-01 
  9.358552843332e-02   1.468781679869e-01  -1.853521347046e+00   9.358552843332e-02   1.468781679869e-01  -1.853521347046e+00   0.000000000000e+00   0.000000000000e+00  -4.100728332996e-01 
  0.000000000000e+00   0.000000000000e+00  -4.100728332996e-01   1.701547205448e-01   3.380139824003e-04  -1.418250054121e-01   2.445961534977e-01  -1.664390228689e-02  -1.076756358147e+00 
  3.533684313297e-01   3.261041641235e-02  -9.155530929565e-01   6.922315955162e-01   1.209711562842e-02  -6.250033378601e-01   3.701756000519e-01   0.000000000000e+00  -4.577855467796e-01 
  5.398821830750e-01   1.112170424312e-02  -2.219574302435e-01   2.197191864252e-01   4.019157961011e-02  -5.118245482445e-01   2.197191864252e-01   4.019157961011e-02  -5.118245482445e-01 
  0.000000000000e+00   0.000000000000e+00  -4.100728332996e-01   0.000000000000e+00   0.000000000000e+00  -4.100728332996e-01   1.701547205448e-01   3.380139824003e-04  -1.418250054121e-01 
  2.445961534977e-01  -1.664390228689e-02  -1.076756358147e+00   3.533684313297e-01   3.261041641235e-02  -9.155530929565e-01   6.922315955162e-01   1.209711562842e-02  -6.250033378601e-01 
  3.701756000519e-01   0.000000000000e+00  -4.577855467796e-01   5.398821830750e-01   1.112170424312e-02  -2.219574302435e-01   2.197191864252e-01   4.019157961011e-02  -5.118245482445e-01 
  2.197191864252e-01   4.019157961011e-02  -5.118245482445e-01   0.000000000000e+00   7.885928452015e-02  -1.426856517792e-01   0.000000000000e+00   7.885928452015e-02  -1.426856517792e-01 
  7.932147383690e-02  -2.946749515831e-02   3.212980329990e-01   2.704769000411e-02  -2.617327868938e-01  -2.843679487705e-01   0.000000000000e+00  -1.114510893822e-01   1.023950576782e+00 
  0.000000000000e+00  -1.766744256020e-02  -1.439288854599e-01   0.000000000000e+00  -6.785576045513e-02  -1.000000014901e-01   0.000000000000e+00   0.000000000000e+00  -3.646952286363e-02 
  0.000000000000e+00  -6.591371446848e-02  -7.297251373529e-02   0.000000000000e+00  -6.591371446848e-02  -7.297251373529e-02   0.000000000000e+00   7.885928452015e-02  -1.426856517792e-01 
  0.000000000000e+00   7.885928452015e-02  -1.426856517792e-01   7.932147383690e-02  -2.946749515831e-02   3.212980329990e-01   2.704769000411e-02  -2.617327868938e-01  -2.843679487705e-01 
  0.000000000000e+00  -1.114510893822e-01   1.023950576782e+00   0.000000000000e+00  -1.766744256020e-02  -1.439288854599e-01   0.000000000000e+00  -6.785576045513e-02  -1.000000014901e-01 
  0.000000000000e+00   0.000000000000e+00  -3.646952286363e-02   0.000000000000e+00  -6.591371446848e-02  -7.297251373529e-02   0.000000000000e+00  -6.591371446848e-02  -7.297251373529e-02 
  0.000000000000e+00   2.697594836354e-02  -3.467918336391e-01   0.000000000000e+00   2.697594836354e-02  -3.467918336391e-01   1.264958679676e-01  -2.991586364806e-02  -4.457718431950e-01 
  3.407872021198e-01  -1.743946224451e-01  -3.832041025162e-01   2.381615936756e-01  -1.942942291498e-02  -6.078270822763e-02   0.000000000000e+00   0.000000000000e+00  -1.000000014901e-01 
  0.000000000000e+00  -5.867944285274e-02   8.780892938375e-03  -6.638741493225e-01   0.000000000000e+00  -7.297251373529e-02  -2.059040218592e-01  -5.512392893434e-02  -1.638987511396e-01 
 -2.059040218592e-01  -5.512392893434e-02  -1.638987511396e-01   0.000000000000e+00  -1.186362206936e-01  -1.604815721512e-01   0.000000000000e+00  -1.186362206936e-01  -1.604815721512e-01 
  9.748940914869e-02  -8.071887493134e-02  -3.304119706154e-01   2.612882852554e-01  -6.595572084188e-02  -4.035270214081e-01   0.000000000000e+00  -3.784569501877e-01   1.652068793774e-01 
 -1.410670638084e+00  -5.281831622124e-01   4.237514734268e-01  -1.057372570038e+00  -3.421480357647e-01   8.916319161654e-02  -9.347507357597e-01  -1.798525005579e-01  -1.499275714159e-01 
 -6.192130446434e-01  -1.158021464944e-01  -4.047704339027e-01  -6.192130446434e-01  -1.158021464944e-01  -4.047704339027e-01   0.000000000000e+00   6.645176559687e-02  -4.798715114594e-01 
  0.000000000000e+00   6.645176559687e-02  -4.798715114594e-01   4.510930180550e-02   3.487285226583e-02  -6.216594576836e-02   1.700782477856e-01   9.990364560508e-06  -4.901106357574e-01 
 -2.192281484604e-01  -1.982084661722e-01  -2.761003077030e-01  -5.885040760040e-01  -2.463259994984e-01  -2.719614468515e-02  -9.444851279259e-01  -1.302572637796e-01  -2.738921940327e-01 
 -7.753481864929e-01  -7.330423593521e-02  -2.863759100437e-01   0.000000000000e+00  -5.947892740369e-02  -5.044422745705e-01   0.000000000000e+00  -5.947892740369e-02  -5.044422745705e-01 
  0.000000000000e+00   3.039306961000e-02  -3.557150065899e-01   0.000000000000e+00   3.039306961000e-02  -3.557150065899e-01   4.110128432512e-02   5.898439139128e-02  -6.568899750710e-01 
  7.591980695724e-02  -9.277705103159e-03  -7.396684288979e-01  -1.597026586533e-01  -7.104567438364e-02  -4.314906597137e-01  -1.329915076494e-01  -7.197568565607e-02  -2.973542809486e-01 
 -4.684999585152e-02  -1.643944159150e-02  -7.377781867981e-01   1.890909373760e-01  -1.569833979011e-02  -6.188769936562e-01   1.808379739523e-01  -5.007878062315e-04  -6.559028029442e-01 