# vtk DataFile Version 2.0
Written using VisIt writer
ASCII
DATASET RECTILINEAR_GRID
DIMENSIONS 10 10 10
X_COORDINATES 10 float
  0.000000000000e+00   5.000000000000e-01   1.000000000000e+00   1.500000000000e+00   2.000000000000e+00   2.500000000000e+00   3.000000000000e+00   3.500000000000e+00   4.000000000000e+00 
  4.500000000000e+00 
Y_COORDINATES 10 float
  0.000000000000e+00   5.000000000000e-01   1.000000000000e+00   1.500000000000e+00   2.000000000000e+00   2.500000000000e+00   3.000000000000e+00   3.500000000000e+00   4.000000000000e+00 
  4.500000000000e+00 
Z_COORDINATES 10 float
  0.000000000000e+00   5.000000000000e-01   1.000000000000e+00   1.500000000000e+00   2.000000000000e+00   2.500000000000e+00   3.000000000000e+00   3.500000000000e+00   4.000000000000e+00 
  4.500000000000e+00 
CELL_DATA 729
POINT_DATA 1000
VECTORS velocity float
  0.000000000000e+00  -1.310150623322e-01  -2.666933834553e-01   3.251200000000e+04   0.000000000000e+00   0.000000000000e+00   0.000000000000e+00   0.000000000000e+00   0.000000000000e+00 
 -5.927009508014e-02  -1.126629188657e-01  -2.573858201504e-01   0.000000000000e+00   0.000000000000e+00   0.000000000000e+00   0.000000000000e+00   1.431655808000e+09   1.070945600000e+09 
 -1.124029532075e-01  -1.157171577215e-01  -2.702431976795e-01   1.071994176000e+09   0.000000000000e+00   0.000000000000e+00   0.000000000000e+00   0.000000000000e+00   0.000000000000e+00 
 -9.981164336205e-02  -1.511346697807e-01  -4.070281088352e-01   0.000000000000e+00  -1.310150623322e-01  -2.666933834553e-01   1.070945600000e+09   0.000000000000e+00   0.000000000000e+00 
 -1.136951223016e-01  -1.444254219532e-01  -3.055591881275e-01  -5.927009508014e-02  -1.126629188657e-01  -2.573858201504e-01   1.431655808000e+09   1.070945600000e+09   0.000000000000e+00 
 -8.985811471939e-02  -9.084362536669e-02  -2.257013022900e-01  -1.124029532075e-01  -1.157171577215e-01  -2.702431976795e-01   0.000000000000e+00   0.000000000000e+00   1.071644672000e+09 
 -9.981164336205e-02  -1.511346697807e-01  -4.070281088352e-01  -9.981164336205e-02  -1.511346697807e-01  -4.070281088352e-01   0.000000000000e+00   4.715268686414e-02  -1.983021497726e-01 
  0.000000000000e+00   4.715268686414e-02  -1.983021497726e-01  -1.552202850580e-01   6.518425047398e-02  -2.651765644550e-01  -1.686268299818e-01  -4.715719819069e-02  -2.829633057117e-01 
 -1.118497252464e-01  -1.129304468632e-01  -3.449135124683e-01   5.116369947791e-02   6.637074984610e-03  -2.355822771788e-01   4.761888086796e-02   2.837112918496e-02  -2.339784204960e-01 
  7.395830471069e-03   3.798072785139e-02  -2.249055653811e-01  -1.270903181285e-02   1.152655407786e-01  -2.756180167198e-01  -1.270903181285e-02   1.152655407786e-01  -2.756180167198e-01 
  0.000000000000e+00   1.304788980633e-02  -2.250765264034e-01   0.000000000000e+00   1.304788980633e-02  -2.250765264034e-01  -1.467529237270e-01   1.058638170362e-01  -2.545948624611e-01 
 -7.860080897808e-02   3.291999176145e-02  -2.244903296232e-01  -7.689132541418e-02   7.966153207235e-04  -2.342217713594e-01  -7.672496140003e-02   1.044962462038e-02  -2.313475161791e-01 
 -1.595148295164e-01  -7.041866425425e-03  -3.687311708927e-01   3.838514536619e-02   4.433325305581e-02  -2.286132723093e-01   2.158040553331e-02   1.298062875867e-02  -2.498462796211e-01 
  2.158040553331e-02   1.298062875867e-02  -2.498462796211e-01   0.000000000000e+00  -4.149663448334e-02  -2.478665560484e-01   0.000000000000e+00  -4.149663448334e-02  -2.478665560484e-01 
 -1.676783114672e-01   1.421272195876e-02  -3.487483561039e-01   3.397428244352e-02  -5.856456235051e-03  -2.482221871614e-01  -1.147908065468e-02  -2.704023942351e-02  -2.533213794231e-01 
 -9.483399987221e-02   2.799283526838e-02  -2.177347093821e-01  -1.641911566257e-01   3.173370286822e-02  -2.717417180538e-01  -1.237806677818e-01  -7.773063331842e-02  -2.731008529663e-01 
 -7.713930308819e-02  -1.453515738249e-01  -3.482204079628e-01  -7.713930308819e-02  -1.453515738249e-01  -3.482204079628e-01   0.000000000000e+00   6.898645311594e-02  -1.951520591974e-01 
  0.000000000000e+00   6.898645311594e-02  -1.951520591974e-01  -1.218871250749e-01   5.076573044062e-02  -2.566613852978e-01  -1.316825151443e-01   8.413573354483e-02  -2.782593667507e-01 
 -1.630955785513e-01   4.252002760768e-02  -3.530996143818e-01  -1.702594570816e-02   6.250810623169e-02  -2.318858653307e-01  -2.190067432821e-02   1.367515232414e-02  -2.336788624525e-01 
 -3.264963254333e-02  -1.557201799005e-02  -2.055778801441e-01  -3.556299488991e-03  -4.679993540049e-02  -2.268257439137e-01  -3.556299488991e-03  -4.679993540049e-02  -2.268257439137e-01 
  0.000000000000e+00   6.815573200583e-03  -2.374686300755e-01   0.000000000000e+00   6.815573200583e-03  -2.374686300755e-01  -1.245463415980e-01  -4.317365959287e-02  -3.085468709469e-01 
 -6.904689222574e-02   6.926658749580e-02  -2.080752402544e-01  -1.757627874613e-01   1.173662990332e-01  -2.839439809322e-01  -1.763297021389e-01   5.918454751372e-02  -3.281884193420e-01 
 -1.024480164051e-01   9.873384609818e-03  -4.206051230431e-01   1.010167896748e-01  -2.631262876093e-02  -2.674406170845e-01   8.266513049603e-02  -1.263836622238e-01  -2.936635613441e-01 
  8.266513049603e-02  -1.263836622238e-01  -2.936635613441e-01   0.000000000000e+00   1.272280886769e-02  -2.732633948326e-01   0.000000000000e+00   1.272280886769e-02  -2.732633948326e-01 
 -1.570152789354e-01  -2.661859430373e-02  -3.155499994755e-01   4.071578010917e-02   2.672340534627e-02  -1.955624520779e-01  -6.859051436186e-02   5.450023710728e-02  -2.141767293215e-01 
 -1.115367114544e-01   8.757025748491e-02  -2.001818120480e-01  -5.895894393325e-02   5.132822692394e-02  -2.367842793465e-01  -5.334163084626e-02  -7.258624583483e-02  -2.555573582649e-01 
  1.999221742153e-02  -1.324901133776e-01  -3.193412423134e-01   1.999221742153e-02  -1.324901133776e-01  -3.193412423134e-01   0.000000000000e+00   0.000000000000e+00  -2.254652380943e-01 
  0.000000000000e+00   0.000000000000e+00  -2.254652380943e-01  -1.677961051464e-01   0.000000000000e+00  -2.646325230598e-01  -6.034725904465e-02   0.000000000000e+00  -2.115082889795e-01 
 -8.694601058960e-02   0.000000000000e+00  -3.254984319210e-01   7.350288331509e-02   0.000000000000e+00  -2.224943786860e-01   4.168560355902e-02   0.000000000000e+00  -2.351665794849e-01 
 -4.033475648612e-03   0.000000000000e+00  -1.929831653833e-01   1.637242883444e-01   0.000000000000e+00  -1.794525682926e-01   1.637242883444e-01   0.000000000000e+00  -1.794525682926e-01 
  0.000000000000e+00   0.000000000000e+00  -2.254652380943e-01   0.000000000000e+00   0.000000000000e+00  -2.254652380943e-01  -1.677961051464e-01   0.000000000000e+00  -2.646325230598e-01 
 -6.034725904465e-02   0.000000000000e+00  -2.115082889795e-01  -8.694601058960e-02   0.000000000000e+00  -3.254984319210e-01   7.350288331509e-02   0.000000000000e+00  -2.224943786860e-01 
  4.168560355902e-02   0.000000000000e+00  -2.351665794849e-01  -4.033475648612e-03   0.000000000000e+00  -1.929831653833e-01   1.637242883444e-01   0.000000000000e+00  -1.794525682926e-01 
  1.637242883444e-01   0.000000000000e+00  -1.794525682926e-01   0.000000000000e+00  -1.310150623322e-01  -2.666933834553e-01   0.000000000000e+00  -1.310150623322e-01  -2.666933834553e-01 
 -1.136951223016e-01  -1.444254219532e-01  -3.055591881275e-01  -5.927009508014e-02  -1.126629188657e-01  -2.573858201504e-01  -1.041435450315e-01  -1.020301505923e-01  -2.355834692717e-01 
 -8.985811471939e-02  -9.084362536669e-02  -2.257013022900e-01  -1.124029532075e-01  -1.157171577215e-01  -2.702431976795e-01  -8.642974495888e-02  -1.303227096796e-01  -2.974801957607e-01 
 -9.981164336205e-02  -1.511346697807e-01  -4.070281088352e-01  -9.981164336205e-02  -1.511346697807e-01  -4.070281088352e-01   0.000000000000e+00  -1.310150623322e-01  -2.666933834553e-01 
  0.000000000000e+00  -1.310150623322e-01  -2.666933834553e-01  -1.136951223016e-01  -1.444254219532e-01  -3.055591881275e-01  -5.927009508014e-02  -1.126629188657e-01  -2.573858201504e-01 
 -1.041435450315e-01  -1.020301505923e-01  -2.355834692717e-01  -8.985811471939e-02  -9.084362536669e-02  -2.257013022900e-01  -1.124029532075e-01  -1.157171577215e-01  -2.702431976795e-01 
 -8.642974495888e-02  -1.303227096796e-01  -2.974801957607e-01  -9.981164336205e-02  -1.511346697807e-01  -4.070281088352e-01  -9.981164336205e-02  -1.511346697807e-01  -4.070281088352e-01 
  0.000000000000e+00   4.715268686414e-02  -1.983021497726e-01   0.000000000000e+00   4.715268686414e-02  -1.983021497726e-01  -1.552202850580e-01   6.518425047398e-02  -2.651765644550e-01 
 -1.686268299818e-01  -4.715719819069e-02  -2.829633057117e-01  -1.118497252464e-01  -1.129304468632e-01  -3.449135124683e-01   5.116369947791e-02   6.637074984610e-03  -2.355822771788e-01 
  4.761888086796e-02   2.837112918496e-02  -2.339784204960e-01   7.395830471069e-03   3.798072785139e-02  -2.249055653811e-01  -1.270903181285e-02   1.152655407786e-01  -2.756180167198e-01 
 -1.270903181285e-02   1.152655407786e-01  -2.756180167198e-01   0.000000000000e+00   1.304788980633e-02  -2.250765264034e-01   0.000000000000e+00   1.304788980633e-02  -2.250765264034e-01 
 -1.467529237270e-01   1.058638170362e-01  -2.545948624611e-01  -7.860080897808e-02   3.291999176145e-02  -2.244903296232e-01  -7.689132541418e-02   7.966153207235e-04  -2.342217713594e-01 
 -7.672496140003e-02   1.044962462038e-02  -2.313475161791e-01  -1.595148295164e-01  -7.041866425425e-03  -3.687311708927e-01   3.838514536619e-02   4.433325305581e-02  -2.286132723093e-01 
  2.158040553331e-02   1.298062875867e-02  -2.498462796211e-01   2.158040553331e-02   1.298062875867e-02  -2.498462796211e-01   0.000000000000e+00  -4.149663448334e-02  -2.478665560484e-01 
  0.000000000000e+00  -4.149663448334e-02  -2.478665560484e-01  -1.676783114672e-01   1.421272195876e-02  -3.487483561039e-01   3.397428244352e-02  -5.856456235051e-03  -2.482221871614e-01 
 -1.147908065468e-02  -2.704023942351e-02  -2.533213794231e-01  -9.483399987221e-02   2.799283526838e-02  -2.177347093821e-01  -1.641911566257e-01   3.173370286822e-02  -2.717417180538e-01 
 -1.237806677818e-01  -7.773063331842e-02  -2.731008529663e-01  -7.713930308819e-02  -1.453515738249e-01  -3.482204079628e-01  -7.713930308819e-02  -1.453515738249e-01  -3.482204079628e-01 
  0.000000000000e+00   6.898645311594e-02  -1.951520591974e-01   0.000000000000e+00   6.898645311594e-02  -1.951520591974e-01  -1.218871250749e-01   5.076573044062e-02  -2.566613852978e-01 
 -1.316825151443e-01   8.413573354483e-02  -2.782593667507e-01  -1.630955785513e-01   4.252002760768e-02  -3.530996143818e-01  -1.702594570816e-02   6.250810623169e-02  -2.318858653307e-01 
 -2.190067432821e-02   1.367515232414e-02  -2.336788624525e-01  -3.264963254333e-02  -1.557201799005e-02  -2.055778801441e-01  -3.556299488991e-03  -4.679993540049e-02  -2.268257439137e-01 
 -3.556299488991e-03  -4.679993540049e-02  -2.268257439137e-01   0.000000000000e+00   6.815573200583e-03  -2.374686300755e-01   0.000000000000e+00   6.815573200583e-03  -2.374686300755e-01 
 -1.245463415980e-01  -4.317365959287e-02  -3.085468709469e-01  -6.904689222574e-02   6.926658749580e-02  -2.080752402544e-01  -1.757627874613e-01   1.173662990332e-01  -2.839439809322e-01 
 -1.763297021389e-01   5.918454751372e-02  -3.281884193420e-01  -1.024480164051e-01   9.873384609818e-03  -4.206051230431e-01   1.010167896748e-01  -2.631262876093e-02  -2.674406170845e-01 
  8.266513049603e-02  -1.263836622238e-01  -2.936635613441e-01   8.266513049603e-02  -1.263836622238e-01  -2.936635613441e-01   0.000000000000e+00   1.272280886769e-02  -2.732633948326e-01 
  0.000000000000e+00   1.272280886769e-02  -2.732633948326e-01  -1.570152789354e-01  -2.661859430373e-02  -3.155499994755e-01   4.071578010917e-02   2.672340534627e-02  -1.955624520779e-01 
 -6.859051436186e-02   5.450023710728e-02  -2.141767293215e-01  -1.115367114544e-01   8.757025748491e-02  -2.001818120480e-01  -5.895894393325e-02   5.132822692394e-02  -2.367842793465e-01 
 -5.334163084626e-02  -7.258624583483e-02  -2.555573582649e-01   1.999221742153e-02  -1.324901133776e-01  -3.193412423134e-01   1.999221742153e-02  -1.324901133776e-01  -3.193412423134e-01 
  0.000000000000e+00   0.000000000000e+00  -2.254652380943e-01   0.000000000000e+00   0.000000000000e+00  -2.254652380943e-01  -1.677961051464e-01   0.000000000000e+00  -2.646325230598e-01 
 -6.034725904465e-02   0.000000000000e+00  -2.115082889795e-01  -8.694601058960e-02   0.000000000000e+00  -3.254984319210e-01   7.350288331509e-02   0.000000000000e+00  -2.224943786860e-01 
  4.168560355902e-02   0.000000000000e+00  -2.351665794849e-01  -4.033475648612e-03   0.000000000000e+00  -1.929831653833e-01   1.637242883444e-01   0.000000000000e+00  -1.794525682926e-01 
  1.637242883444e-01   0.000000000000e+00  -1.794525682926e-01   0.000000000000e+00   0.000000000000e+00  -2.254652380943e-01   0.000000000000e+00   0.000000000000e+00  -2.254652380943e-01 
 -1.677961051464e-01   0.000000000000e+00  -2.646325230598e-01  -6.034725904465e-02   0.000000000000e+00  -2.115082889795e-01  -8.694601058960e-02   0.000000000000e+00  -3.254984319210e-01 
  7.350288331509e-02   0.000000000000e+00  -2.224943786860e-01   4.168560355902e-02   0.000000000000e+00  -2.351665794849e-01  -4.033475648612e-03   0.000000000000e+00  -1.929831653833e-01 
  1.637242883444e-01   0.000000000000e+00  -1.794525682926e-01   1.637242883444e-01   0.000000000000e+00  -1.794525682926e-01   0.000000000000e+00  -9.720226377249e-02  -3.488616943359e-01 
  0.000000000000e+00  -9.720226377249e-02  -3.488616943359e-01   9.000143408775e-02  -1.092602685094e-01  -6.082853674889e-01  -2.389335334301e-01  -1.390268206596e-01  -1.009834766388e+00 
 -3.077610954642e-02  -1.171083003283e-01  -9.459920525551e-01  -6.438082456589e-02  -1.168609336019e-01  -1.060262799263e+00  -7.415547966957e-02  -1.227807179093e-01  -1.057947635651e+00 
  5.569025501609e-02  -1.219364181161e-01  -9.589490890503e-01   7.911959290504e-02  -1.267616301775e-01  -9.043844938278e-01   7.911959290504e-02  -1.267616301775e-01  -9.043844938278e-01 
  0.000000000000e+00  -9.720226377249e-02  -3.488616943359e-01   0.000000000000e+00  -9.720226377249e-02  -3.488616943359e-01   9.000143408775e-02  -1.092602685094e-01  -6.082853674889e-01 
 -2.389335334301e-01  -1.390268206596e-01  -1.009834766388e+00  -3.077610954642e-02  -1.171083003283e-01  -9.459920525551e-01  -6.438082456589e-02  -1.168609336019e-01  -1.060262799263e+00 
 -7.415547966957e-02  -1.227807179093e-01  -1.057947635651e+00   5.569025501609e-02  -1.219364181161e-01  -9.589490890503e-01   7.911959290504e-02  -1.267616301775e-01  -9.043844938278e-01 
  7.911959290504e-02  -1.267616301775e-01  -9.043844938278e-01   0.000000000000e+00   5.170926079154e-02  -4.440512359142e-01   0.000000000000e+00   5.170926079154e-02  -4.440512359142e-01 
  2.771271392703e-02   4.186905920506e-02  -7.371938824654e-01  -1.462667882442e-01  -5.954292789102e-02  -1.048337817192e+00   8.414293639362e-03  -1.796933263540e-02  -8.273963928223e-01 
 -5.094856023788e-02   8.536247164011e-02  -9.951957464218e-01   1.884302869439e-02   9.788114577532e-02  -1.071774721146e+00  -6.327059864998e-02  -2.532315067947e-02  -1.142651557922e+00 
  9.196173399687e-02  -7.116303592920e-02  -1.128389477730e+00   9.196173399687e-02  -7.116303592920e-02  -1.128389477730e+00   0.000000000000e+00   6.404247134924e-02  -5.485352277756e-01 
  0.000000000000e+00   6.404247134924e-02  -5.485352277756e-01   1.228865310550e-01   1.082245036960e-01  -8.360099792480e-01  -1.635077446699e-01   1.268872469664e-01  -1.080595970154e+00 
  5.540349707007e-02   1.849649101496e-01  -8.926833868027e-01   7.130987197161e-02   1.961308866739e-01  -8.278778791428e-01  -5.806013569236e-02  -5.757583770901e-03  -7.190020084381e-01 
 -2.080930210650e-02  -5.117908120155e-02  -9.026746153831e-01   1.486204862595e-01  -1.464334968477e-02  -8.008531928062e-01   1.486204862595e-01  -1.464334968477e-02  -8.008531928062e-01 
  0.000000000000e+00   1.025583688170e-02  -3.837081789970e-01   0.000000000000e+00   1.025583688170e-02  -3.837081789970e-01   1.742310374975e-01   1.375052779913e-01  -4.454132020473e-01 
 -2.283976674080e-01  -5.162331089377e-02  -9.878863096237e-01  -7.386904954910e-02  -1.213317364454e-01  -9.401769042015e-01  -1.051902770996e-01  -2.208282798529e-01  -1.053360700607e+00 
  6.138471886516e-02  -1.208418831229e-01  -8.914725780487e-01   4.696483258158e-03  -1.015022173524e-01  -8.620228171349e-01   1.722864061594e-01  -1.647395640612e-01  -6.436236500740e-01 
  1.722864061594e-01  -1.647395640612e-01  -6.436236500740e-01   0.000000000000e+00   9.338288754225e-02  -7.175862789154e-01   0.000000000000e+00   9.338288754225e-02  -7.175862789154e-01 
  1.966874301434e-01   2.677665837109e-02  -8.788778185844e-01   1.828903518617e-02   3.839772567153e-02  -8.468395471573e-01  -2.921774387360e-01  -6.865146569908e-03  -7.259505987167e-01 
 -1.047283932567e-01  -4.679665341973e-02  -9.470403194427e-01  -2.560061402619e-04  -2.762383595109e-02  -9.090855121613e-01  -3.968350216746e-02  -2.537964656949e-02  -9.531136155128e-01 
  1.230493187904e-01  -6.047580391169e-02  -9.291387796402e-01   1.230493187904e-01  -6.047580391169e-02  -9.291387796402e-01   0.000000000000e+00  -1.007875427604e-01  -4.477647840977e-01 
  0.000000000000e+00  -1.007875427604e-01  -4.477647840977e-01   1.616882234812e-01  -1.793635785580e-01  -8.531491756439e-01   6.371431797743e-02   7.273449748755e-02  -1.073931217194e+00 
 -8.738265931606e-02   2.485448567313e-05  -1.088417887688e+00  -6.320541352034e-02   1.738853752613e-02  -9.882473349571e-01  -4.564505536109e-03   3.932198137045e-02  -7.721756100655e-01 
 -4.319306090474e-02   8.117362111807e-02  -8.803883194923e-01   1.396956443787e-01   2.040650695562e-02  -9.696723818779e-01   1.396956443787e-01   2.040650695562e-02  -9.696723818779e-01 
  0.000000000000e+00  -3.728965669870e-02  -3.218578994274e-01   0.000000000000e+00  -3.728965669870e-02  -3.218578994274e-01   1.249052584171e-01  -7.029023021460e-02  -5.412107110023e-01 
 -1.229381188750e-01  -1.129944175482e-01  -9.123012423515e-01   9.593728184700e-02   1.817294862121e-03  -9.033327698708e-01  -9.370175190270e-03  -2.354980446398e-02  -9.963849782944e-01 
 -2.882494777441e-02  -4.067339003086e-02  -9.094977378845e-01   7.623255252838e-02  -4.285740200430e-03  -8.511506319046e-01   1.331935822964e-01  -4.463214427233e-02  -7.562371492386e-01 
  1.331935822964e-01  -4.463214427233e-02  -7.562371492386e-01   0.000000000000e+00   0.000000000000e+00  -5.760067105293e-01   0.000000000000e+00   0.000000000000e+00  -5.760067105293e-01 
  2.013771235943e-01   0.000000000000e+00  -5.417897701263e-01   2.260164916515e-01   0.000000000000e+00  -8.327182531357e-01   1.686088591814e-01   0.000000000000e+00  -7.546855211258e-01 
  3.901026025414e-02   0.000000000000e+00  -9.743102788925e-01  -1.050902828574e-01   0.000000000000e+00  -9.592961072922e-01   1.234837099910e-01   0.000000000000e+00  -9.069751501083e-01 
  2.010039091110e-01   0.000000000000e+00  -9.226392507553e-01   2.010039091110e-01   0.000000000000e+00  -9.226392507553e-01   0.000000000000e+00   0.000000000000e+00  -5.760067105293e-01 
  0.000000000000e+00   0.000000000000e+00  -5.760067105293e-01   2.013771235943e-01   0.000000000000e+00  -5.417897701263e-01   2.260164916515e-01   0.000000000000e+00  -8.327182531357e-01 
  1.686088591814e-01   0.000000000000e+00  -7.546855211258e-01   3.901026025414e-02   0.000000000000e+00  -9.743102788925e-01  -1.050902828574e-01   0.000000000000e+00  -9.592961072922e-01 
  1.234837099910e-01   0.000000000000e+00  -9.069751501083e-01   2.010039091110e-01   0.000000000000e+00  -9.226392507553e-01   2.010039091110e-01   0.000000000000e+00  -9.226392507553e-01 
  0.000000000000e+00   1.689739525318e-03  -1.876140385866e-01   0.000000000000e+00   1.689739525318e-03  -1.876140385866e-01   1.454155147076e-01   2.251901477575e-02  -1.787862032652e-01 
 -2.845621407032e-01   6.265614181757e-02  -3.092168867588e-01  -2.024830430746e-01  -9.751596301794e-02  -2.060253173113e-01   0.000000000000e+00  -9.126705527306e-01  -6.094186902046e-01 
 -7.404399663210e-02  -2.231203317642e+00  -4.171825647354e-01   9.850496053696e-02  -7.304455041885e-01  -4.550233185291e-01   8.342745155096e-02  -1.193937063217e-01  -5.785046219826e-01 
  8.342745155096e-02  -1.193937063217e-01  -5.785046219826e-01   0.000000000000e+00   1.689739525318e-03  -1.876140385866e-01   0.000000000000e+00   1.689739525318e-03  -1.876140385866e-01 
  1.454155147076e-01   2.251901477575e-02  -1.787862032652e-01  -2.845621407032e-01   6.265614181757e-02  -3.092168867588e-01  -2.024830430746e-01  -9.751596301794e-02  -2.060253173113e-01 
  0.000000000000e+00  -9.126705527306e-01  -6.094186902046e-01  -7.404399663210e-02  -2.231203317642e+00  -4.171825647354e-01   9.850496053696e-02  -7.304455041885e-01  -4.550233185291e-01 
  8.342745155096e-02  -1.193937063217e-01  -5.785046219826e-01   8.342745155096e-02  -1.193937063217e-01  -5.785046219826e-01   0.000000000000e+00   4.937338083982e-02  -1.288011223078e-01 
  0.000000000000e+00   4.937338083982e-02  -1.288011223078e-01   1.353755891323e-01   6.603965163231e-02  -1.278328150511e-01  -3.751307427883e-01   1.140941381454e-01  -6.379202939570e-03 
 -4.619306623936e-01   4.713448137045e-02   2.625680863857e-01  -1.422779113054e-01  -6.213693618774e-01  -5.422576665878e-01  -2.489441260695e-02  -2.058654308319e+00  -4.146669209003e-01 
 -5.537039786577e-02  -1.820170134306e-01  -2.688033878803e-01   7.110144942999e-02  -4.889803007245e-02  -4.894807040691e-01   7.110144942999e-02  -4.889803007245e-02  -4.894807040691e-01 
  0.000000000000e+00   5.727175250649e-02  -9.605580568314e-02   0.000000000000e+00   5.727175250649e-02  -9.605580568314e-02   1.146491840482e-01   9.655550122261e-02  -1.094392836094e-01 
 -8.533314615488e-02   1.112525165081e-01  -4.608906805515e-01   3.102367930114e-02   1.410785019398e-01  -3.421462178230e-01   5.292677879333e-02  -7.391788810492e-02  -4.281425476074e-01 
 -2.595614641905e-02  -8.642625808716e-02   2.922704815865e-01  -7.702599745244e-03  -1.838725246489e-02  -1.687602698803e-01   3.470554947853e-02   2.902949042618e-02  -8.236755132675e-01 
  3.470554947853e-02   2.902949042618e-02  -8.236755132675e-01   0.000000000000e+00  -4.955601319671e-02  -1.037473455071e-01   0.000000000000e+00  -4.955601319671e-02  -1.037473455071e-01 
  7.952637225389e-02   2.370364032686e-03  -2.601335644722e-01   1.750626368448e-03  -3.161865845323e-02  -3.579865396023e-01   9.850289672613e-02  -9.547324478626e-02  -3.939567506313e-01 
  3.350636363029e-02  -1.529936790466e-01  -5.003299713135e-01   6.699787825346e-02  -9.498225152493e-02  -5.026432871819e-01   4.086931294296e-04   1.550667686388e-03  -6.054091453552e-01 
  4.914993420243e-02   1.046035513282e-01  -5.872188806534e-01   4.914993420243e-02   1.046035513282e-01  -5.872188806534e-01   0.000000000000e+00   1.624573022127e-01  -5.078165233135e-02 
  0.000000000000e+00   1.624573022127e-01  -5.078165233135e-02   1.540818214417e-01   4.642489831895e-03  -2.236555218697e-01  -1.831496357918e-01  -6.953131407499e-03  -7.881845235825e-01 
  3.918528854847e-01  -3.808337450027e-02   1.529238075018e-01   2.226542234421e-01  -4.670855030417e-02  -3.041315972805e-01   1.024829074740e-01  -2.077079564333e-02  -5.428652763367e-01 
 -5.448932945728e-02   2.784043923020e-02  -4.447530508041e-01   9.916199743748e-02   1.341204792261e-01  -2.414589226246e-01   9.916199743748e-02   1.341204792261e-01  -2.414589226246e-01 
  0.000000000000e+00  -1.322255432606e-01  -9.101549535990e-02   0.000000000000e+00  -1.322255432606e-01  -9.101549535990e-02   3.118203282356e-01  -9.299029409885e-02  -2.696670405567e-02 
 -1.038888841867e-01  -9.638326242566e-03  -3.604803383350e-01   2.866312265396e-01  -1.025830805302e-01  -2.221627980471e-01   1.689655482769e-01  -5.651236325502e-02  -1.917855143547e-01 
  1.934356838465e-01  -3.831094130874e-03  -5.215530991554e-01  -1.342474520206e-01   5.846742168069e-02  -1.131111025810e+00  -6.677161157131e-02   6.335900723934e-02  -7.246057987213e-01 
 -6.677161157131e-02   6.335900723934e-02  -7.246057987213e-01   0.000000000000e+00  -6.224334239960e-03  -9.451648592949e-02   0.000000000000e+00  -6.224334239960e-03  -9.451648592949e-02 
  1.871706098318e-01  -3.185525536537e-02  -2.803954482079e-02  -8.679311722517e-02  -1.376646477729e-02  -1.245680004358e-01   1.694658994675e-01  -2.549509331584e-02  -3.797083795071e-01 
  7.347717881203e-02  -5.136510729790e-02  -6.191462874413e-01   1.706894487143e-01  -3.116537071764e-02  -3.761176764965e-01  -2.928478419781e-01  -2.344629541039e-02  -7.009199857712e-01 
 -2.732378542423e-01  -3.942973911762e-02  -3.318036496639e-01  -2.732378542423e-01  -3.942973911762e-02  -3.318036496639e-01   0.000000000000e+00   0.000000000000e+00  -1.840671896935e-01 
  0.000000000000e+00   0.000000000000e+00  -1.840671896935e-01   7.610817253590e-02  -2.821170724928e-03  -1.367319524288e-01   1.318455338478e-01  -2.481216564775e-03  -3.367080092430e-01 
  3.854250013828e-01   0.000000000000e+00  -1.244504824281e-01   3.082334101200e-01  -8.779248222709e-03  -3.518363237381e-01   1.191396594048e+00   0.000000000000e+00   7.227700948715e-02 
  8.786126375198e-01   0.000000000000e+00  -6.362973451614e-01  -1.209435686469e-01   0.000000000000e+00  -3.741306960583e-01  -1.209435686469e-01   0.000000000000e+00  -3.741306960583e-01 
  0.000000000000e+00   0.000000000000e+00  -1.840671896935e-01   0.000000000000e+00   0.000000000000e+00  -1.840671896935e-01   7.610817253590e-02  -2.821170724928e-03  -1.367319524288e-01 
  1.318455338478e-01  -2.481216564775e-03  -3.367080092430e-01   3.854250013828e-01   0.000000000000e+00  -1.244504824281e-01   3.082334101200e-01  -8.779248222709e-03  -3.518363237381e-01 
  1.191396594048e+00   0.000000000000e+00   7.227700948715e-02   8.786126375198e-01   0.000000000000e+00  -6.362973451614e-01  -1.209435686469e-01   0.000000000000e+00  -3.741306960583e-01 
 -1.209435686469e-01   0.000000000000e+00  -3.741306960583e-01   0.000000000000e+00   1.554649416357e-02  -2.381302267313e-01   0.000000000000e+00   1.554649416357e-02  -2.381302267313e-01 
  9.153436124325e-02   3.095450252295e-02  -2.238426953554e-01  -3.181996941566e-01   1.322627067566e-01   1.654196381569e+00  -3.566066324711e-01  -2.246096730232e-02   5.167045593262e-01 
 -3.685166360810e-03  -1.289330840111e+00  -1.000000014901e-01   1.223048195243e-02  -2.144928932190e+00   3.736175969243e-02   1.223048195243e-02  -1.001534461975e+00  -4.891271889210e-02 
  6.510987877846e-02  -2.478409707546e-01  -3.905974328518e-01   6.510987877846e-02  -2.478409707546e-01  -3.905974328518e-01   0.000000000000e+00   1.554649416357e-02  -2.381302267313e-01 
  0.000000000000e+00   1.554649416357e-02  -2.381302267313e-01   9.153436124325e-02   3.095450252295e-02  -2.238426953554e-01  -3.181996941566e-01   1.322627067566e-01   1.654196381569e+00 
 -3.566066324711e-01  -2.246096730232e-02   5.167045593262e-01  -3.685166360810e-03  -1.289330840111e+00  -1.000000014901e-01   1.223048195243e-02  -2.144928932190e+00   3.736175969243e-02 
  1.223048195243e-02  -1.001534461975e+00  -4.891271889210e-02   6.510987877846e-02  -2.478409707546e-01  -3.905974328518e-01   6.510987877846e-02  -2.478409707546e-01  -3.905974328518e-01 
  0.000000000000e+00   2.575503848493e-02  -1.587265431881e-01   0.000000000000e+00   2.575503848493e-02  -1.587265431881e-01   8.067342638969e-02   1.887742578983e-01   1.560386180878e+00 
 -3.361912071705e-01   2.312210649252e-01   2.261694908142e+00  -4.705663919449e-01   1.543333381414e-01   1.753523707390e+00   0.000000000000e+00  -1.035771369934e+00   3.018879890442e-01 
 -1.170349400491e-02  -2.144928932190e+00  -2.712578177452e-01  -4.547939822078e-02  -3.928626477718e-01  -2.618160545826e-01   5.868950858712e-02  -3.631753474474e-02  -1.000000014901e-01 
  5.868950858712e-02  -3.631753474474e-02  -1.000000014901e-01   0.000000000000e+00  -5.677030980587e-02  -1.587759405375e-01   0.000000000000e+00  -5.677030980587e-02  -1.587759405375e-01 
  4.163453355432e-02   9.814786165953e-02  -8.992255479097e-02  -9.330432116985e-02   1.077606752515e-01  -3.619110584259e-01  -1.240897551179e-02   1.308221668005e-01  -2.221495211124e-01 
  2.389634959400e-02  -4.205472171307e-01  -2.394123375416e-01  -5.892314016819e-03  -4.663114249706e-01   1.187940537930e-01   3.872372675687e-03  -9.856100194156e-03  -4.001207351685e-01 
  3.403820842505e-02   0.000000000000e+00  -7.098076343536e-01   3.403820842505e-02   0.000000000000e+00  -7.098076343536e-01   0.000000000000e+00   2.084935270250e-02  -1.529341936111e-01 
  0.000000000000e+00   2.084935270250e-02  -1.529341936111e-01   1.100222617388e-01   1.451408304274e-02   5.762129276991e-02  -1.686905920506e-01  -1.170824933797e-02  -1.190368607640e-01 
  8.101513236761e-02   2.559699118137e-03   9.585757553577e-02   2.398040890694e-02  -5.171185359359e-02  -1.824465245008e-01   4.739321768284e-02  -6.885392218828e-02  -4.961635470390e-01 
  0.000000000000e+00   9.394694934599e-04  -5.643382072449e-01   4.820485040545e-02   0.000000000000e+00  -5.093628168106e-01   4.820485040545e-02   0.000000000000e+00  -5.093628168106e-01 
  0.000000000000e+00   1.763696968555e-01  -1.249133795500e-01   0.000000000000e+00   1.763696968555e-01  -1.249133795500e-01   1.190232709050e-01   2.028597146273e-02  -9.265759587288e-02 
 -5.680131912231e-01   4.784011840820e-02  -1.664991825819e-01   8.267400413752e-02   8.337199687958e-02   2.510590851307e-01  -2.185888960958e-02   1.038938947022e-02   1.341040828265e-03 
  3.166971728206e-02  -1.792027987540e-02  -3.188007175922e-01  -6.138831004500e-02   1.580484583974e-02  -2.908833026886e-01   4.404043778777e-02   0.000000000000e+00  -1.000000014901e-01 