# vtk DataFile Version 2.0
Written using VisIt writer
ASCII
DATASET RECTILINEAR_GRID
DIMENSIONS 10 10 10
X_COORDINATES 10 float
  0.000000000000e+00   5.000000000000e-01   1.000000000000e+00   1.500000000000e+00   2.000000000000e+00   2.500000000000e+00   3.000000000000e+00   3.500000000000e+00   4.000000000000e+00 
  4.500000000000e+00 
Y_COORDINATES 10 float
  0.000000000000e+00   5.000000000000e-01   1.000000000000e+00   1.500000000000e+00   2.000000000000e+00   2.500000000000e+00   3.000000000000e+00   3.500000000000e+00   4.000000000000e+00 
  4.500000000000e+00 
Z_COORDINATES 10 float
  0.000000000000e+00   5.000000000000e-01   1.000000000000e+00   1.500000000000e+00   2.000000000000e+00   2.500000000000e+00   3.000000000000e+00   3.500000000000e+00   4.000000000000e+00 
  4.500000000000e+00 
CELL_DATA 729
POINT_DATA 1000
VECTORS velocity float
  0.000000000000e+00  -1.273200660944e-01  -2.566593885422e-01   3.251200000000e+04   0.000000000000e+00   0.000000000000e+00   0.000000000000e+00   0.000000000000e+00   0.000000000000e+00 
 -6.281421333551e-02  -1.124672293663e-01  -2.627239823341e-01   0.000000000000e+00   0.000000000000e+00   0.000000000000e+00   0.000000000000e+00   1.431655808000e+09   1.070945600000e+09 
 -1.187108159065e-01  -1.322619765997e-01  -3.031218945980e-01   1.071994176000e+09   0.000000000000e+00   0.000000000000e+00   0.000000000000e+00   0.000000000000e+00   0.000000000000e+00 
 -8.867968618870e-02  -1.548821628094e-01  -4.311402142048e-01   0.000000000000e+00  -1.273200660944e-01  -2.566593885422e-01   1.070945600000e+09   0.000000000000e+00   0.000000000000e+00 
 -1.141626462340e-01  -1.415469348431e-01  -3.375142216682e-01  -6.281421333551e-02  -1.124672293663e-01  -2.627239823341e-01   1.431655808000e+09   1.070945600000e+09   0.000000000000e+00 
 -1.028968915343e-01  -1.024466380477e-01  -2.481139153242e-01  -1.187108159065e-01  -1.322619765997e-01  -3.031218945980e-01   0.000000000000e+00   0.000000000000e+00   1.071644672000e+09 
 -8.867968618870e-02  -1.548821628094e-01  -4.311402142048e-01  -8.867968618870e-02  -1.548821628094e-01  -4.311402142048e-01   0.000000000000e+00   4.516493901610e-02  -2.014792263508e-01 
  0.000000000000e+00   4.516493901610e-02  -2.014792263508e-01  -1.507268100977e-01   5.899527668953e-02  -2.567718625069e-01  -1.632588803768e-01  -5.088432133198e-02  -2.952226698399e-01 
 -1.264365166426e-01  -1.187153309584e-01  -3.526467680931e-01   4.223653301597e-02  -3.103562165052e-03  -2.649441361427e-01   2.786911465228e-02   1.622600480914e-02  -2.650315761566e-01 
  1.658290624619e-02   3.126551955938e-02  -2.264826297760e-01  -5.245730280876e-03   1.014837473631e-01  -2.712305486202e-01  -5.245730280876e-03   1.014837473631e-01  -2.712305486202e-01 
  0.000000000000e+00   5.153582897037e-03  -2.355243712664e-01   0.000000000000e+00   5.153582897037e-03  -2.355243712664e-01  -1.442155390978e-01   9.786789864302e-02  -2.650033533573e-01 
 -8.504483103752e-02   2.870342321694e-02  -2.338920384645e-01  -8.597677201033e-02   2.126595703885e-03  -2.516429424286e-01  -8.379677683115e-02   1.686346530914e-02  -2.673145234585e-01 
 -1.529308408499e-01   9.131753817201e-03  -3.609856367111e-01   4.584746062756e-02   4.217303171754e-02  -2.077033668756e-01   1.950622349977e-02   2.505104523152e-03  -2.300827205181e-01 
  1.950622349977e-02   2.505104523152e-03  -2.300827205181e-01   0.000000000000e+00  -3.818451985717e-02  -2.469746619463e-01   0.000000000000e+00  -3.818451985717e-02  -2.469746619463e-01 
 -1.735550165176e-01  -2.162107639015e-02  -3.560040593147e-01   4.610895738006e-02  -1.765482500196e-02  -3.016725182533e-01  -7.930723018944e-03  -1.610439643264e-02  -2.705571353436e-01 
 -9.112119674683e-02   5.109413713217e-02  -2.459705322981e-01  -1.719657331705e-01   5.274249985814e-02  -2.639008760452e-01  -1.179498210549e-01  -5.956032499671e-02  -2.568268775940e-01 
 -1.004368737340e-01  -1.062226146460e-01  -3.534969687462e-01  -1.004368737340e-01  -1.062226146460e-01  -3.534969687462e-01   0.000000000000e+00   7.490768283606e-02  -1.961571276188e-01 
  0.000000000000e+00   7.490768283606e-02  -1.961571276188e-01  -1.392663568258e-01   6.074156984687e-02  -2.411991804838e-01  -1.378398090601e-01   8.603956550360e-02  -2.856368422508e-01 
 -1.367327570915e-01   4.882002249360e-02  -3.629637360573e-01  -1.409898605198e-02   6.453461945057e-02  -2.508477270603e-01  -2.151346020401e-02   2.526084519923e-02  -2.308968901634e-01 
 -3.425383940339e-02  -9.629908599891e-04  -2.044714838266e-01  -1.425443217158e-02  -1.641723327339e-02  -2.294019460678e-01  -1.425443217158e-02  -1.641723327339e-02  -2.294019460678e-01 
  0.000000000000e+00  -1.432499149814e-03  -2.420741915703e-01   0.000000000000e+00  -1.432499149814e-03  -2.420741915703e-01  -1.594545841217e-01  -3.998234495521e-02  -2.837773561478e-01 
 -8.730877935886e-02   6.379983574152e-02  -2.349363565445e-01  -1.455638706684e-01   1.082841455936e-01  -2.885000705719e-01  -1.625527590513e-01   5.426222085953e-02  -3.683525323868e-01 
 -1.029021069407e-01   3.763331333175e-03  -4.288826882839e-01   9.552040696144e-02  -3.322422131896e-02  -2.800231873989e-01   7.551634311676e-02  -1.201548129320e-01  -3.259106874466e-01 
  7.551634311676e-02  -1.201548129320e-01  -3.259106874466e-01   0.000000000000e+00  -1.846405491233e-02  -2.593777775764e-01   0.000000000000e+00  -1.846405491233e-02  -2.593777775764e-01 
 -1.784316152334e-01  -2.538851276040e-02  -3.269968926907e-01   2.726164273918e-02   3.012304753065e-02  -2.114566117525e-01  -5.821669474244e-02   5.050021409988e-02  -2.187808752060e-01 
 -1.106367632747e-01   7.941462844610e-02  -2.124532908201e-01  -5.184598639607e-02   4.653743654490e-02  -2.552063465118e-01  -6.509329378605e-02  -9.013091027737e-02  -2.848370969296e-01 
 -3.469254443189e-05  -1.432835757732e-01  -3.936509788036e-01  -3.469254443189e-05  -1.432835757732e-01  -3.936509788036e-01   0.000000000000e+00   0.000000000000e+00  -2.166043072939e-01 
  0.000000000000e+00   0.000000000000e+00  -2.166043072939e-01  -1.954793035984e-01   0.000000000000e+00  -2.981149554253e-01  -8.611449599266e-02   0.000000000000e+00  -2.513474524021e-01 
 -8.745411783457e-02   0.000000000000e+00  -3.380049467087e-01   7.728862762451e-02   0.000000000000e+00  -2.630406916142e-01   6.365410983562e-02   0.000000000000e+00  -2.648656070232e-01 
 -1.542766764760e-02   0.000000000000e+00  -2.342409491539e-01   1.639252603054e-01   0.000000000000e+00  -2.796186804771e-01   1.639252603054e-01   0.000000000000e+00  -2.796186804771e-01 
  0.000000000000e+00   0.000000000000e+00  -2.166043072939e-01   0.000000000000e+00   0.000000000000e+00  -2.166043072939e-01  -1.954793035984e-01   0.000000000000e+00  -2.981149554253e-01 
 -8.611449599266e-02   0.000000000000e+00  -2.513474524021e-01  -8.745411783457e-02   0.000000000000e+00  -3.380049467087e-01   7.728862762451e-02   0.000000000000e+00  -2.630406916142e-01 
  6.365410983562e-02   0.000000000000e+00  -2.648656070232e-01  -1.542766764760e-02   0.000000000000e+00  -2.342409491539e-01   1.639252603054e-01   0.000000000000e+00  -2.796186804771e-01 
  1.639252603054e-01   0.000000000000e+00  -2.796186804771e-01   0.000000000000e+00  -1.273200660944e-01  -2.566593885422e-01   0.000000000000e+00  -1.273200660944e-01  -2.566593885422e-01 
 -1.141626462340e-01  -1.415469348431e-01  -3.375142216682e-01  -6.281421333551e-02  -1.124672293663e-01  -2.627239823341e-01  -9.918458759785e-02  -1.076784282923e-01  -2.432995289564e-01 
 -1.028968915343e-01  -1.024466380477e-01  -2.481139153242e-01  -1.187108159065e-01  -1.322619765997e-01  -3.031218945980e-01  -8.593107014894e-02  -1.373537033796e-01  -3.030159771442e-01 
 -8.867968618870e-02  -1.548821628094e-01  -4.311402142048e-01  -8.867968618870e-02  -1.548821628094e-01  -4.311402142048e-01   0.000000000000e+00  -1.273200660944e-01  -2.566593885422e-01 
  0.000000000000e+00  -1.273200660944e-01  -2.566593885422e-01  -1.141626462340e-01  -1.415469348431e-01  -3.375142216682e-01  -6.281421333551e-02  -1.124672293663e-01  -2.627239823341e-01 
 -9.918458759785e-02  -1.076784282923e-01  -2.432995289564e-01  -1.028968915343e-01  -1.024466380477e-01  -2.481139153242e-01  -1.187108159065e-01  -1.322619765997e-01  -3.031218945980e-01 
 -8.593107014894e-02  -1.373537033796e-01  -3.030159771442e-01  -8.867968618870e-02  -1.548821628094e-01  -4.311402142048e-01  -8.867968618870e-02  -1.548821628094e-01  -4.311402142048e-01 
  0.000000000000e+00   4.516493901610e-02  -2.014792263508e-01   0.000000000000e+00   4.516493901610e-02  -2.014792263508e-01  -1.507268100977e-01   5.899527668953e-02  -2.567718625069e-01 
 -1.632588803768e-01  -5.088432133198e-02  -2.952226698399e-01  -1.264365166426e-01  -1.187153309584e-01  -3.526467680931e-01   4.223653301597e-02  -3.103562165052e-03  -2.649441361427e-01 
  2.786911465228e-02   1.622600480914e-02  -2.650315761566e-01   1.658290624619e-02   3.126551955938e-02  -2.264826297760e-01  -5.245730280876e-03   1.014837473631e-01  -2.712305486202e-01 
 -5.245730280876e-03   1.014837473631e-01  -2.712305486202e-01   0.000000000000e+00   5.153582897037e-03  -2.355243712664e-01   0.000000000000e+00   5.153582897037e-03  -2.355243712664e-01 
 -1.442155390978e-01   9.786789864302e-02  -2.650033533573e-01  -8.504483103752e-02   2.870342321694e-02  -2.338920384645e-01  -8.597677201033e-02   2.126595703885e-03  -2.516429424286e-01 
 -8.379677683115e-02   1.686346530914e-02  -2.673145234585e-01  -1.529308408499e-01   9.131753817201e-03  -3.609856367111e-01   4.584746062756e-02   4.217303171754e-02  -2.077033668756e-01 
  1.950622349977e-02   2.505104523152e-03  -2.300827205181e-01   1.950622349977e-02   2.505104523152e-03  -2.300827205181e-01   0.000000000000e+00  -3.818451985717e-02  -2.469746619463e-01 
  0.000000000000e+00  -3.818451985717e-02  -2.469746619463e-01  -1.735550165176e-01  -2.162107639015e-02  -3.560040593147e-01   4.610895738006e-02  -1.765482500196e-02  -3.016725182533e-01 
 -7.930723018944e-03  -1.610439643264e-02  -2.705571353436e-01  -9.112119674683e-02   5.109413713217e-02  -2.459705322981e-01  -1.719657331705e-01   5.274249985814e-02  -2.639008760452e-01 
 -1.179498210549e-01  -5.956032499671e-02  -2.568268775940e-01  -1.004368737340e-01  -1.062226146460e-01  -3.534969687462e-01  -1.004368737340e-01  -1.062226146460e-01  -3.534969687462e-01 
  0.000000000000e+00   7.490768283606e-02  -1.961571276188e-01   0.000000000000e+00   7.490768283606e-02  -1.961571276188e-01  -1.392663568258e-01   6.074156984687e-02  -2.411991804838e-01 
 -1.378398090601e-01   8.603956550360e-02  -2.856368422508e-01  -1.367327570915e-01   4.882002249360e-02  -3.629637360573e-01  -1.409898605198e-02   6.453461945057e-02  -2.508477270603e-01 
 -2.151346020401e-02   2.526084519923e-02  -2.308968901634e-01  -3.425383940339e-02  -9.629908599891e-04  -2.044714838266e-01  -1.425443217158e-02  -1.641723327339e-02  -2.294019460678e-01 
 -1.425443217158e-02  -1.641723327339e-02  -2.294019460678e-01   0.000000000000e+00  -1.432499149814e-03  -2.420741915703e-01   0.000000000000e+00  -1.432499149814e-03  -2.420741915703e-01 
 -1.594545841217e-01  -3.998234495521e-02  -2.837773561478e-01  -8.730877935886e-02   6.379983574152e-02  -2.349363565445e-01  -1.455638706684e-01   1.082841455936e-01  -2.885000705719e-01 
 -1.625527590513e-01   5.426222085953e-02  -3.683525323868e-01  -1.029021069407e-01   3.763331333175e-03  -4.288826882839e-01   9.552040696144e-02  -3.322422131896e-02  -2.800231873989e-01 
  7.551634311676e-02  -1.201548129320e-01  -3.259106874466e-01   7.551634311676e-02  -1.201548129320e-01  -3.259106874466e-01   0.000000000000e+00  -1.846405491233e-02  -2.593777775764e-01 
  0.000000000000e+00  -1.846405491233e-02  -2.593777775764e-01  -1.784316152334e-01  -2.538851276040e-02  -3.269968926907e-01   2.726164273918e-02   3.012304753065e-02  -2.114566117525e-01 
 -5.821669474244e-02   5.050021409988e-02  -2.187808752060e-01  -1.106367632747e-01   7.941462844610e-02  -2.124532908201e-01  -5.184598639607e-02   4.653743654490e-02  -2.552063465118e-01 
 -6.509329378605e-02  -9.013091027737e-02  -2.848370969296e-01  -3.469254443189e-05  -1.432835757732e-01  -3.936509788036e-01  -3.469254443189e-05  -1.432835757732e-01  -3.936509788036e-01 
  0.000000000000e+00   0.000000000000e+00  -2.166043072939e-01   0.000000000000e+00   0.000000000000e+00  -2.166043072939e-01  -1.954793035984e-01   0.000000000000e+00  -2.981149554253e-01 
 -8.611449599266e-02   0.000000000000e+00  -2.513474524021e-01  -8.745411783457e-02   0.000000000000e+00  -3.380049467087e-01   7.728862762451e-02   0.000000000000e+00  -2.630406916142e-01 
  6.365410983562e-02   0.000000000000e+00  -2.648656070232e-01  -1.542766764760e-02   0.000000000000e+00  -2.342409491539e-01   1.639252603054e-01   0.000000000000e+00  -2.796186804771e-01 
  1.639252603054e-01   0.000000000000e+00  -2.796186804771e-01   0.000000000000e+00   0.000000000000e+00  -2.166043072939e-01   0.000000000000e+00   0.000000000000e+00  -2.166043072939e-01 
 -1.954793035984e-01   0.000000000000e+00  -2.981149554253e-01  -8.611449599266e-02   0.000000000000e+00  -2.513474524021e-01  -8.745411783457e-02   0.000000000000e+00  -3.380049467087e-01 
  7.728862762451e-02   0.000000000000e+00  -2.630406916142e-01   6.365410983562e-02   0.000000000000e+00  -2.648656070232e-01  -1.542766764760e-02   0.000000000000e+00  -2.342409491539e-01 
  1.639252603054e-01   0.000000000000e+00  -2.796186804771e-01   1.639252603054e-01   0.000000000000e+00  -2.796186804771e-01   0.000000000000e+00  -9.607912600040e-02  -3.862073719501e-01 
  0.000000000000e+00  -9.607912600040e-02  -3.862073719501e-01   6.949362903833e-02  -1.065684109926e-01  -6.646004319191e-01  -2.063303738832e-01  -1.393723189831e-01  -1.052456021309e+00 
 -6.535312533379e-02  -1.263839006424e-01  -9.756535291672e-01  -5.579446256161e-02  -1.311261206865e-01  -1.043652296066e+00  -8.654835820198e-02  -1.578698456287e-01  -1.053280711174e+00 
  3.946589678526e-02  -1.356082558632e-01  -9.706671237946e-01   7.926965504885e-02  -1.300155967474e-01  -9.211181402206e-01   7.926965504885e-02  -1.300155967474e-01  -9.211181402206e-01 
  0.000000000000e+00  -9.607912600040e-02  -3.862073719501e-01   0.000000000000e+00  -9.607912600040e-02  -3.862073719501e-01   6.949362903833e-02  -1.065684109926e-01  -6.646004319191e-01 
 -2.063303738832e-01  -1.393723189831e-01  -1.052456021309e+00  -6.535312533379e-02  -1.263839006424e-01  -9.756535291672e-01  -5.579446256161e-02  -1.311261206865e-01  -1.043652296066e+00 
 -8.654835820198e-02  -1.578698456287e-01  -1.053280711174e+00   3.946589678526e-02  -1.356082558632e-01  -9.706671237946e-01   7.926965504885e-02  -1.300155967474e-01  -9.211181402206e-01 
  7.926965504885e-02  -1.300155967474e-01  -9.211181402206e-01   0.000000000000e+00   4.093292728066e-02  -4.115861356258e-01   0.000000000000e+00   4.093292728066e-02  -4.115861356258e-01 
  7.966625504196e-03  -1.711401343346e-02  -7.570872902870e-01  -1.507868468761e-01  -4.661579802632e-02  -1.083670139313e+00  -5.218471586704e-02  -2.937116846442e-02  -8.823707103729e-01 
 -8.989046514034e-02  -7.870764471591e-03  -1.052642583847e+00  -7.044437527657e-02  -6.213953346014e-02  -1.166445136070e+00   2.243880555034e-02  -6.344465911388e-02  -1.122533559799e+00 
  9.020416438580e-02  -7.179030030966e-02  -1.095756530762e+00   9.020416438580e-02  -7.179030030966e-02  -1.095756530762e+00   0.000000000000e+00   6.818045675755e-02  -5.747282505035e-01 
  0.000000000000e+00   6.818045675755e-02  -5.747282505035e-01   1.358267366886e-01   1.916391998529e-01  -7.939351797104e-01  -2.337265312672e-01   1.374601572752e-01  -1.110700130463e+00 
 -1.832457445562e-02   1.686718016863e-01  -9.332523941994e-01   3.957729414105e-02   2.481537312269e-01  -9.297236800194e-01  -9.745130687952e-02   1.440154016018e-01  -7.905544638634e-01 
  5.184535682201e-02   2.047609388828e-01  -8.984763026237e-01   6.929434090853e-02   1.910638064146e-01  -9.491376876831e-01   6.929434090853e-02   1.910638064146e-01  -9.491376876831e-01 
  0.000000000000e+00  -1.060412358493e-02  -4.587253034115e-01   0.000000000000e+00  -1.060412358493e-02  -4.587253034115e-01   7.126536220312e-02   1.656659063883e-03  -5.906074047089e-01 
 -2.067201137543e-01  -5.515016987920e-02  -1.066473722458e+00  -2.710693143308e-02  -7.197223603725e-02  -9.280253052711e-01  -8.292822539806e-02  -1.640441417694e-01  -1.005177497864e+00 
  9.635316208005e-03  -7.899014651775e-02  -8.626484870911e-01   4.114986211061e-02  -1.094552725554e-01  -8.277324438095e-01   1.120056584477e-01  -1.105222254992e-01  -6.852963566780e-01 
  1.120056584477e-01  -1.105222254992e-01  -6.852963566780e-01   0.000000000000e+00   1.085246652365e-01  -7.662906646729e-01   0.000000000000e+00   1.085246652365e-01  -7.662906646729e-01 
  1.543384045362e-01   1.215284466743e-01  -9.386724233627e-01  -1.577386111021e-01   8.816813677549e-02  -9.949806928635e-01  -1.632109284401e-01   1.875220239162e-02  -8.088954091072e-01 
 -1.176177039742e-01  -2.798916585743e-02  -1.000685334206e+00  -2.147954888642e-02  -2.076332457364e-02  -9.535372853279e-01  -3.709145262837e-02  -1.238506194204e-02  -9.630810618401e-01 
  1.164563372731e-01  -2.879358269274e-02  -9.453951716423e-01   1.164563372731e-01  -2.879358269274e-02  -9.453951716423e-01   0.000000000000e+00  -9.153043478727e-02  -4.969352185726e-01 
  0.000000000000e+00  -9.153043478727e-02  -4.969352185726e-01   1.353962868452e-01  -1.789545118809e-01  -9.155471324921e-01  -1.776589602232e-01   7.332856766880e-03  -1.225887775421e+00 
 -2.322375029325e-02  -4.522503819317e-03  -1.103346705437e+00  -5.677308887243e-02   2.732773683965e-02  -1.002530336380e+00  -1.371008623391e-02   4.646953195333e-02  -8.210473060608e-01 
 -5.818232893944e-02   7.998318970203e-02  -9.302788376808e-01   1.333290636539e-01   3.519913181663e-02  -9.825345873833e-01   1.333290636539e-01   3.519913181663e-02  -9.825345873833e-01 
  0.000000000000e+00  -3.941544890404e-02  -3.179248869419e-01   0.000000000000e+00  -3.941544890404e-02  -3.179248869419e-01   1.015759035945e-01  -6.794807314873e-02  -5.601952075958e-01 
 -1.928079277277e-01  -9.582994878292e-02  -1.006823182106e+00   1.625509746373e-02  -2.714071981609e-02  -9.691939353943e-01  -8.748766034842e-03  -3.700548410416e-02  -1.014975547791e+00 
 -8.061639382504e-04  -4.682690277696e-02  -9.365574717522e-01   3.179823607206e-02   1.002706307918e-02  -8.610126376152e-01   1.054674834013e-01  -5.907863751054e-02  -7.786356806755e-01 
  1.054674834013e-01  -5.907863751054e-02  -7.786356806755e-01   0.000000000000e+00   0.000000000000e+00  -5.572797060013e-01   0.000000000000e+00   0.000000000000e+00  -5.572797060013e-01 
  1.613809466362e-01   0.000000000000e+00  -5.866698622704e-01  -3.115628100932e-02   0.000000000000e+00  -9.641032814980e-01   8.255120366812e-02   0.000000000000e+00  -8.880656957626e-01 
  4.584518074989e-02   0.000000000000e+00  -1.096991539001e+00  -2.112133242190e-02   0.000000000000e+00  -1.040027499199e+00   4.494483117014e-03   0.000000000000e+00  -1.031567215919e+00 
  2.447244375944e-01   0.000000000000e+00  -1.027882814407e+00   2.447244375944e-01   0.000000000000e+00  -1.027882814407e+00   0.000000000000e+00   0.000000000000e+00  -5.572797060013e-01 
  0.000000000000e+00   0.000000000000e+00  -5.572797060013e-01   1.613809466362e-01   0.000000000000e+00  -5.866698622704e-01  -3.115628100932e-02   0.000000000000e+00  -9.641032814980e-01 
  8.255120366812e-02   0.000000000000e+00  -8.880656957626e-01   4.584518074989e-02   0.000000000000e+00  -1.096991539001e+00  -2.112133242190e-02   0.000000000000e+00  -1.040027499199e+00 
  4.494483117014e-03   0.000000000000e+00  -1.031567215919e+00   2.447244375944e-01   0.000000000000e+00  -1.027882814407e+00   2.447244375944e-01   0.000000000000e+00  -1.027882814407e+00 
  0.000000000000e+00   8.420594967902e-03  -1.137891858816e-01   0.000000000000e+00   8.420594967902e-03  -1.137891858816e-01   1.382797509432e-01   7.461621891707e-03  -1.178722083569e-01 
 -2.192248553038e-01   7.272472232580e-02  -3.477451801300e-01  -1.489293426275e-01  -7.943978160620e-02  -2.933642566204e-01   0.000000000000e+00  -7.698119878769e-01  -6.268931627274e-01 
 -7.748465985060e-02  -1.774678468704e+00  -6.539660096169e-01   9.499233216047e-02  -7.572681307793e-01  -5.416396856308e-01   8.049613237381e-02  -1.507588922977e-01  -6.018021702766e-01 
  8.049613237381e-02  -1.507588922977e-01  -6.018021702766e-01   0.000000000000e+00   8.420594967902e-03  -1.137891858816e-01   0.000000000000e+00   8.420594967902e-03  -1.137891858816e-01 
  1.382797509432e-01   7.461621891707e-03  -1.178722083569e-01  -2.192248553038e-01   7.272472232580e-02  -3.477451801300e-01  -1.489293426275e-01  -7.943978160620e-02  -2.933642566204e-01 
  0.000000000000e+00  -7.698119878769e-01  -6.268931627274e-01  -7.748465985060e-02  -1.774678468704e+00  -6.539660096169e-01   9.499233216047e-02  -7.572681307793e-01  -5.416396856308e-01 
  8.049613237381e-02  -1.507588922977e-01  -6.018021702766e-01   8.049613237381e-02  -1.507588922977e-01  -6.018021702766e-01   0.000000000000e+00   2.977239154279e-02  -1.710171401501e-01 
  0.000000000000e+00   2.977239154279e-02  -1.710171401501e-01   1.234919950366e-01   3.595361858606e-02  -1.368357092142e-01  -2.457792460918e-01   1.346594095230e-01   1.524193435907e-01 
 -2.600390315056e-01   4.823387041688e-02   2.463335692883e-01  -1.277011483908e-01  -6.156557798386e-01  -6.032001972198e-01  -5.460020527244e-02  -1.602201461792e+00  -2.313330918550e-01 
  3.247508034110e-02  -5.763635635376e-01  -4.276250898838e-01   6.008907407522e-02  -1.083595603704e-01  -5.911065340042e-01   6.008907407522e-02  -1.083595603704e-01  -5.911065340042e-01 
  0.000000000000e+00   5.565178021789e-02  -5.510015785694e-02   0.000000000000e+00   5.565178021789e-02  -5.510015785694e-02   1.163008064032e-01   8.191786706448e-02  -1.357856243849e-01 
 -8.730141073465e-02   1.529641598463e-01  -5.225474834442e-01  -3.401166200638e-02   1.469992399216e-01  -3.864454030991e-01   1.645539328456e-02   2.590210922062e-02  -5.925219058990e-01 
 -2.672523446381e-02   1.252617537975e-01  -1.791666597128e-01   5.254762992263e-02   8.775445818901e-02  -4.778940081596e-01   2.997398376465e-02  -2.349962946028e-03  -6.603282690048e-01 
  2.997398376465e-02  -2.349962946028e-03  -6.603282690048e-01   0.000000000000e+00  -3.201093524694e-02  -4.765966907144e-02   0.000000000000e+00  -3.201093524694e-02  -4.765966907144e-02 
  9.119470417500e-02  -7.190144155174e-03  -1.237953454256e-01   5.778913572431e-02  -1.486282236874e-02  -4.106729924679e-01   1.150484979153e-01  -4.553451389074e-02  -4.628203809261e-01 
  1.694388501346e-02  -9.421639889479e-02  -5.903777480125e-01   1.903700083494e-02   6.014254409820e-03  -5.211838483810e-01   4.856924340129e-02   9.010499715805e-02  -5.877329111099e-01 
  6.028319150209e-02   3.179080039263e-02  -5.696184635162e-01   6.028319150209e-02   3.179080039263e-02  -5.696184635162e-01   0.000000000000e+00   1.309659481049e-01  -4.821715131402e-02 
  0.000000000000e+00   1.309659481049e-01  -4.821715131402e-02   1.550441235304e-01   2.169680595398e-02  -1.972744017839e-01  -2.100453376770e-01   3.121956624091e-02  -4.658884927630e-02 
  3.566781580448e-01   3.156923875213e-02   6.863589584827e-02   1.325777769089e-01  -2.095485478640e-02  -4.301573634148e-01   6.969492137432e-02  -1.094795577228e-02  -5.917037725449e-01 
 -4.914474859834e-02   4.212957620621e-02  -4.874236285686e-01   1.018782258034e-01   1.042261123657e-01  -3.062434792519e-01   1.018782258034e-01   1.042261123657e-01  -3.062434792519e-01 
  0.000000000000e+00  -1.195548474789e-01  -1.032450944185e-01   0.000000000000e+00  -1.195548474789e-01  -1.032450944185e-01   2.492239624262e-01  -9.537541866302e-02  -8.224158734083e-02 
 -1.030226498842e-01   3.104357793927e-02  -2.770383358002e-01   1.952946782112e-01  -4.924019053578e-02  -4.005395472050e-01   1.081306040287e-01  -6.635880470276e-02  -4.103241860867e-01 
  1.878534853458e-01  -3.764756023884e-03  -5.837621688843e-01  -1.016621962190e-01   4.215328022838e-02  -6.620578765869e-01  -9.895441122353e-03   6.365209817886e-02  -5.746546983719e-01 
 -9.895441122353e-03   6.365209817886e-02  -5.746546983719e-01   0.000000000000e+00  -1.472095679492e-02  -1.181607916951e-01   0.000000000000e+00  -1.472095679492e-02  -1.181607916951e-01 
  1.925417333841e-01  -5.138270556927e-02  -8.058901876211e-02  -1.577745229006e-01   4.784882999957e-03  -1.651909947395e-01   1.147337108850e-01  -3.533460199833e-02  -4.529981613159e-01 
  6.785824149847e-02  -4.720139130950e-02  -6.478410959244e-01   1.936071813107e-01  -5.985610932112e-02  -4.874135851860e-01  -1.791473478079e-01  -1.150098070502e-01  -4.206291139126e-01 
 -1.531185656786e-01  -1.076368615031e-01  -1.528107523918e-01  -1.531185656786e-01  -1.076368615031e-01  -1.528107523918e-01   0.000000000000e+00   0.000000000000e+00  -1.429294049740e-01 
  0.000000000000e+00   0.000000000000e+00  -1.429294049740e-01   8.344263583422e-02  -1.784245832823e-04  -1.440552026033e-01  -1.876960694790e-02   8.424706174992e-04  -3.397077023983e-01 
  3.947823643684e-01   0.000000000000e+00   2.193986624479e-02   2.841353118420e-01  -8.067592047155e-03  -5.769754052162e-01   1.134153485298e+00   0.000000000000e+00  -3.034967482090e-01 
  8.886575698853e-01   0.000000000000e+00  -2.772789299488e-01   6.744129210711e-02   0.000000000000e+00  -4.492645263672e-01   6.744129210711e-02   0.000000000000e+00  -4.492645263672e-01 
  0.000000000000e+00   0.000000000000e+00  -1.429294049740e-01   0.000000000000e+00   0.000000000000e+00  -1.429294049740e-01   8.344263583422e-02  -1.784245832823e-04  -1.440552026033e-01 
 -1.876960694790e-02   8.424706174992e-04  -3.397077023983e-01   3.947823643684e-01   0.000000000000e+00   2.193986624479e-02   2.841353118420e-01  -8.067592047155e-03  -5.769754052162e-01 
  1.134153485298e+00   0.000000000000e+00  -3.034967482090e-01   8.886575698853e-01   0.000000000000e+00  -2.772789299488e-01   6.744129210711e-02   0.000000000000e+00  -4.492645263672e-01 
  6.744129210711e-02   0.000000000000e+00  -4.492645263672e-01   0.000000000000e+00   9.780468419194e-03  -2.562003731728e-01   0.000000000000e+00   9.780468419194e-03  -2.562003731728e-01 
  8.284069597721e-02   2.468076162040e-02  -2.150616496801e-01   2.305773459375e-02   6.861461699009e-02   3.707094490528e-01  -1.776628196239e-01  -1.934110969305e-01   4.386877268553e-02 
  0.000000000000e+00  -1.091833114624e+00  -1.000000014901e-01   8.753833360970e-03  -1.688439965248e+00  -7.363410592079e-01   8.753833360970e-03  -1.045521736145e+00  -6.248971223831e-01 
  5.911661684513e-02  -3.194646835327e-01  -6.148370504379e-01   5.911661684513e-02  -3.194646835327e-01  -6.148370504379e-01   0.000000000000e+00   9.780468419194e-03  -2.562003731728e-01 
  0.000000000000e+00   9.780468419194e-03  -2.562003731728e-01   8.284069597721e-02   2.468076162040e-02  -2.150616496801e-01   2.305773459375e-02   6.861461699009e-02   3.707094490528e-01 
 -1.776628196239e-01  -1.934110969305e-01   4.386877268553e-02   0.000000000000e+00  -1.091833114624e+00  -1.000000014901e-01   8.753833360970e-03  -1.688439965248e+00  -7.363410592079e-01 
  8.753833360970e-03  -1.045521736145e+00  -6.248971223831e-01   5.911661684513e-02  -3.194646835327e-01  -6.148370504379e-01   5.911661684513e-02  -3.194646835327e-01  -6.148370504379e-01 
  0.000000000000e+00   2.344913594425e-02  -1.304105371237e-01   0.000000000000e+00   2.344913594425e-02  -1.304105371237e-01   7.821693271399e-02   2.559522725642e-02   3.196482956409e-01 
 -3.023387193680e-01   1.069476604462e-01   1.540301203728e+00  -3.023387193680e-01   7.952690124512e-02   1.338011026382e+00  -1.713519096375e-01  -9.902186393738e-01  -4.803566634655e-01 
 -2.042503468692e-02  -1.688439965248e+00  -2.313330918550e-01   2.450414933264e-02  -8.493200540543e-01  -7.387799024582e-01   3.640486672521e-02  -1.684477329254e-01  -6.486377716064e-01 
  3.640486672521e-02  -1.684477329254e-01  -6.486377716064e-01   0.000000000000e+00  -6.367278099060e-02  -8.451030403376e-02   0.000000000000e+00  -6.367278099060e-02  -8.451030403376e-02 
  1.016187202185e-02  -5.159863270819e-03  -5.793659016490e-02  -5.257305502892e-02   1.081941947341e-01  -2.950688600540e-01  -4.748745355755e-03   1.301547735929e-01  -1.882335394621e-01 
  3.678905311972e-03  -7.569421082735e-02  -4.820281863213e-01  -1.457755547017e-02   1.150198504329e-01  -5.965662598610e-01   0.000000000000e+00   8.353432267904e-02  -1.155275344849e+00 
  0.000000000000e+00  -1.474882592447e-03  -7.256461381912e-01   0.000000000000e+00  -1.474882592447e-03  -7.256461381912e-01   0.000000000000e+00   1.538917981088e-02  -9.445887804031e-02 
  0.000000000000e+00   1.538917981088e-02  -9.445887804031e-02   8.074188977480e-02   4.099517595023e-03   5.522963404655e-02  -1.216134279966e-01   4.423990380019e-03  -7.580094784498e-02 
  6.637141853571e-02   2.177759259939e-02   2.150696218014e-01  -6.157749798149e-03  -4.096459224820e-02  -1.619758456945e-01   6.311862263829e-03   4.438719898462e-02  -5.639336705208e-01 
  3.864857554436e-02   7.642161101103e-02  -7.226223349571e-01   4.917334020138e-02   0.000000000000e+00  -5.170897245407e-01   4.917334020138e-02   0.000000000000e+00  -5.170897245407e-01 
  0.000000000000e+00   2.096889466047e-01  -2.804887853563e-02   0.000000000000e+00   2.096889466047e-01  -2.804887853563e-02   1.032475754619e-01   2.396494895220e-02   1.065210849047e-01 
 -4.029407501221e-01   3.075610287488e-02  -3.995606675744e-02   5.833343043923e-02   7.594947516918e-02   4.297499358654e-01  -7.053971290588e-02   1.305295247585e-02   8.407278358936e-02 
 -9.364193305373e-03  -5.019726697356e-03  -3.209712207317e-01  -5.265940725803e-02   4.173354804516e-02  -4.367154836655e-01   6.095051020384e-02   0.000000000000e+00  -1.000000014901e-01 