# vtk DataFile Version 2.0
Written using VisIt writer
ASCII
DATASET RECTILINEAR_GRID
DIMENSIONS 10 10 10
X_COORDINATES 10 float
  0.000000000000e+00   5.000000000000e-01   1.000000000000e+00   1.500000000000e+00   2.000000000000e+00   2.500000000000e+00   3.000000000000e+00   3.500000000000e+00   4.000000000000e+00 
  4.500000000000e+00 
Y_COORDINATES 10 float
  0.000000000000e+00   5.000000000000e-01   1.000000000000e+00   1.500000000000e+00   2.000000000000e+00   2.500000000000e+00   3.000000000000e+00   3.500000000000e+00   4.000000000000e+00 
  4.500000000000e+00 
Z_COORDINATES 10 float
  0.000000000000e+00   5.000000000000e-01   1.000000000000e+00   1.500000000000e+00   2.000000000000e+00   2.500000000000e+00   3.000000000000e+00   3.500000000000e+00   4.000000000000e+00 
  4.500000000000e+00 
CELL_DATA 729
POINT_DATA 1000
VECTORS velocity float
  0.000000000000e+00  -1.044972911477e-01  -2.277285903692e-01   3.251200000000e+04   0.000000000000e+00   0.000000000000e+00   0.000000000000e+00   0.000000000000e+00   0.000000000000e+00 
  2.234086953104e-02  -6.077845394611e-02  -1.502200961113e-01   0.000000000000e+00   0.000000000000e+00   0.000000000000e+00   0.000000000000e+00   1.431655808000e+09   1.070945600000e+09 
 -1.193309724331e-01  -7.870114594698e-02  -1.617095023394e-01   1.071994176000e+09   0.000000000000e+00   0.000000000000e+00   0.000000000000e+00   0.000000000000e+00   0.000000000000e+00 
 -1.364915966988e-01  -1.051100715995e-01  -2.033731639385e-01   0.000000000000e+00  -1.044972911477e-01  -2.277285903692e-01   1.070945600000e+09   0.000000000000e+00   0.000000000000e+00 
 -1.302805822343e-02  -1.150141879916e-01  -2.230789810419e-01   2.234086953104e-02  -6.077845394611e-02  -1.502200961113e-01   1.431655808000e+09   1.070945600000e+09   0.000000000000e+00 
 -6.083768978715e-02  -4.602371156216e-02  -1.324172765017e-01  -1.193309724331e-01  -7.870114594698e-02  -1.617095023394e-01   0.000000000000e+00   0.000000000000e+00   1.071644672000e+09 
 -1.364915966988e-01  -1.051100715995e-01  -2.033731639385e-01  -1.364915966988e-01  -1.051100715995e-01  -2.033731639385e-01   0.000000000000e+00   4.916415363550e-02  -1.868944317102e-01 
  0.000000000000e+00   4.916415363550e-02  -1.868944317102e-01  -1.061559319496e-01   3.716735541821e-02  -1.894483119249e-01  -6.414704769850e-02  -1.140716746449e-01  -1.690446585417e-01 
 -1.400005966425e-01  -2.273472398520e-01  -1.891572028399e-01   4.871384054422e-02  -8.309946954250e-02  -1.350433081388e-01   3.450511023402e-02  -6.441105157137e-02  -1.407770365477e-01 
  1.487690676004e-02  -4.649895802140e-02  -1.403763443232e-01  -5.205768719316e-02  -7.525129476562e-04  -1.665768027306e-01  -5.205768719316e-02  -7.525129476562e-04  -1.665768027306e-01 
  0.000000000000e+00   2.611218951643e-02  -1.741855442524e-01   0.000000000000e+00   2.611218951643e-02  -1.741855442524e-01  -3.948010876775e-02   9.056135267019e-02  -1.682752072811e-01 
 -1.838486269116e-02   5.998392403126e-02  -1.387760341167e-01  -4.177497699857e-02  -5.218710750341e-02  -1.490771025419e-01  -8.297118544579e-02  -1.201132386923e-01  -1.538570821285e-01 
 -1.812759190798e-01  -4.617470875382e-02  -2.011063247919e-01   6.090880837291e-03   2.441854961216e-02  -1.352804005146e-01   3.203647583723e-02   3.302441537380e-02  -1.394263803959e-01 
  3.203647583723e-02   3.302441537380e-02  -1.394263803959e-01   0.000000000000e+00  -9.864763170481e-02  -2.191658169031e-01   0.000000000000e+00  -9.864763170481e-02  -2.191658169031e-01 
 -1.954729668796e-02   1.883627264760e-03  -2.576647102833e-01   1.584278792143e-01   9.972072206438e-03  -1.560091078281e-01   3.847705945373e-02  -3.519464749843e-03  -1.424851119518e-01 
 -8.160962164402e-02   2.131512016058e-02  -1.345282346010e-01  -2.047034651041e-01  -3.937458153814e-03  -1.573281735182e-01  -1.175666376948e-01  -8.201783150434e-02  -1.567701846361e-01 
 -4.021052271128e-02  -1.365242004395e-01  -2.038075625896e-01  -4.021052271128e-02  -1.365242004395e-01  -2.038075625896e-01   0.000000000000e+00   5.629004165530e-02  -1.775941699743e-01 
  0.000000000000e+00   5.629004165530e-02  -1.775941699743e-01  -4.747437685728e-02  -1.821977458894e-02  -1.901956796646e-01   4.119522124529e-02   2.523377165198e-02  -1.745864599943e-01 
 -1.237198263407e-01   3.789901360869e-02  -1.977038234472e-01   1.311504002661e-02   7.688658684492e-02  -1.391376852989e-01  -4.105683788657e-02   4.688339307904e-02  -1.369309574366e-01 
 -9.949270635843e-03  -3.155895043164e-03  -1.321218013763e-01   6.376489531249e-03  -7.618514448404e-02  -1.526049971581e-01   6.376489531249e-03  -7.618514448404e-02  -1.526049971581e-01 
  0.000000000000e+00   4.924670234323e-02  -1.785542964935e-01   0.000000000000e+00   4.924670234323e-02  -1.785542964935e-01  -8.924916386604e-03  -3.057739883661e-02  -1.733140498400e-01 
 -2.675340510905e-02   2.434000000358e-02  -1.573712229729e-01  -1.023932844400e-01   8.485302329063e-02  -1.622796058655e-01  -1.638861447573e-01   1.915815845132e-02  -1.725735813379e-01 
 -7.676119357347e-02  -2.960367826745e-03  -2.094676494598e-01   1.071775108576e-01   1.955791935325e-02  -1.397481113672e-01   1.260561645031e-01  -1.067005097866e-01  -1.489140689373e-01 
  1.260561645031e-01  -1.067005097866e-01  -1.489140689373e-01   0.000000000000e+00   9.793257713318e-02  -2.472033500671e-01   0.000000000000e+00   9.793257713318e-02  -2.472033500671e-01 
 -4.333817958832e-02  -1.096719689667e-02  -2.293862402439e-01   4.940540716052e-02  -1.844742521644e-02  -1.642722636461e-01  -1.279558427632e-02   2.715772204101e-02  -1.490754336119e-01 
 -7.361180335283e-02   8.531663566828e-02  -1.407978385687e-01  -4.519014433026e-02   1.010714322329e-01  -1.523354500532e-01   5.463248491287e-02   2.651108428836e-02  -1.702986359596e-01 
  4.987649992108e-02  -1.541118025780e-01  -2.570223212242e-01   4.987649992108e-02  -1.541118025780e-01  -2.570223212242e-01   0.000000000000e+00   0.000000000000e+00  -2.194651961327e-01 
  0.000000000000e+00   0.000000000000e+00  -2.194651961327e-01   1.970501057804e-02   0.000000000000e+00  -2.027342468500e-01  -2.693571709096e-02   0.000000000000e+00  -1.814409494400e-01 
 -5.476358532906e-02   0.000000000000e+00  -1.984840333462e-01   5.556055158377e-02   0.000000000000e+00  -1.417103707790e-01   8.631373755634e-03   0.000000000000e+00  -1.476704031229e-01 
  7.829866558313e-02   0.000000000000e+00  -1.328577995300e-01   8.786030113697e-02   0.000000000000e+00  -1.480566561222e-01   8.786030113697e-02   0.000000000000e+00  -1.480566561222e-01 
  0.000000000000e+00   0.000000000000e+00  -2.194651961327e-01   0.000000000000e+00   0.000000000000e+00  -2.194651961327e-01   1.970501057804e-02   0.000000000000e+00  -2.027342468500e-01 
 -2.693571709096e-02   0.000000000000e+00  -1.814409494400e-01  -5.476358532906e-02   0.000000000000e+00  -1.984840333462e-01   5.556055158377e-02   0.000000000000e+00  -1.417103707790e-01 
  8.631373755634e-03   0.000000000000e+00  -1.476704031229e-01   7.829866558313e-02   0.000000000000e+00  -1.328577995300e-01   8.786030113697e-02   0.000000000000e+00  -1.480566561222e-01 
  8.786030113697e-02   0.000000000000e+00  -1.480566561222e-01   0.000000000000e+00  -1.044972911477e-01  -2.277285903692e-01   0.000000000000e+00  -1.044972911477e-01  -2.277285903692e-01 
 -1.302805822343e-02  -1.150141879916e-01  -2.230789810419e-01   2.234086953104e-02  -6.077845394611e-02  -1.502200961113e-01  -5.442938581109e-02  -4.966856539249e-02  -1.415390372276e-01 
 -6.083768978715e-02  -4.602371156216e-02  -1.324172765017e-01  -1.193309724331e-01  -7.870114594698e-02  -1.617095023394e-01  -1.059848517179e-01  -8.562038838863e-02  -1.742421835661e-01 
 -1.364915966988e-01  -1.051100715995e-01  -2.033731639385e-01  -1.364915966988e-01  -1.051100715995e-01  -2.033731639385e-01   0.000000000000e+00  -1.044972911477e-01  -2.277285903692e-01 
  0.000000000000e+00  -1.044972911477e-01  -2.277285903692e-01  -1.302805822343e-02  -1.150141879916e-01  -2.230789810419e-01   2.234086953104e-02  -6.077845394611e-02  -1.502200961113e-01 
 -5.442938581109e-02  -4.966856539249e-02  -1.415390372276e-01  -6.083768978715e-02  -4.602371156216e-02  -1.324172765017e-01  -1.193309724331e-01  -7.870114594698e-02  -1.617095023394e-01 
 -1.059848517179e-01  -8.562038838863e-02  -1.742421835661e-01  -1.364915966988e-01  -1.051100715995e-01  -2.033731639385e-01  -1.364915966988e-01  -1.051100715995e-01  -2.033731639385e-01 
  0.000000000000e+00   4.916415363550e-02  -1.868944317102e-01   0.000000000000e+00   4.916415363550e-02  -1.868944317102e-01  -1.061559319496e-01   3.716735541821e-02  -1.894483119249e-01 
 -6.414704769850e-02  -1.140716746449e-01  -1.690446585417e-01  -1.400005966425e-01  -2.273472398520e-01  -1.891572028399e-01   4.871384054422e-02  -8.309946954250e-02  -1.350433081388e-01 
  3.450511023402e-02  -6.441105157137e-02  -1.407770365477e-01   1.487690676004e-02  -4.649895802140e-02  -1.403763443232e-01  -5.205768719316e-02  -7.525129476562e-04  -1.665768027306e-01 
 -5.205768719316e-02  -7.525129476562e-04  -1.665768027306e-01   0.000000000000e+00   2.611218951643e-02  -1.741855442524e-01   0.000000000000e+00   2.611218951643e-02  -1.741855442524e-01 
 -3.948010876775e-02   9.056135267019e-02  -1.682752072811e-01  -1.838486269116e-02   5.998392403126e-02  -1.387760341167e-01  -4.177497699857e-02  -5.218710750341e-02  -1.490771025419e-01 
 -8.297118544579e-02  -1.201132386923e-01  -1.538570821285e-01  -1.812759190798e-01  -4.617470875382e-02  -2.011063247919e-01   6.090880837291e-03   2.441854961216e-02  -1.352804005146e-01 
  3.203647583723e-02   3.302441537380e-02  -1.394263803959e-01   3.203647583723e-02   3.302441537380e-02  -1.394263803959e-01   0.000000000000e+00  -9.864763170481e-02  -2.191658169031e-01 
  0.000000000000e+00  -9.864763170481e-02  -2.191658169031e-01  -1.954729668796e-02   1.883627264760e-03  -2.576647102833e-01   1.584278792143e-01   9.972072206438e-03  -1.560091078281e-01 
  3.847705945373e-02  -3.519464749843e-03  -1.424851119518e-01  -8.160962164402e-02   2.131512016058e-02  -1.345282346010e-01  -2.047034651041e-01  -3.937458153814e-03  -1.573281735182e-01 
 -1.175666376948e-01  -8.201783150434e-02  -1.567701846361e-01  -4.021052271128e-02  -1.365242004395e-01  -2.038075625896e-01  -4.021052271128e-02  -1.365242004395e-01  -2.038075625896e-01 
  0.000000000000e+00   5.629004165530e-02  -1.775941699743e-01   0.000000000000e+00   5.629004165530e-02  -1.775941699743e-01  -4.747437685728e-02  -1.821977458894e-02  -1.901956796646e-01 
  4.119522124529e-02   2.523377165198e-02  -1.745864599943e-01  -1.237198263407e-01   3.789901360869e-02  -1.977038234472e-01   1.311504002661e-02   7.688658684492e-02  -1.391376852989e-01 
 -4.105683788657e-02   4.688339307904e-02  -1.369309574366e-01  -9.949270635843e-03  -3.155895043164e-03  -1.321218013763e-01   6.376489531249e-03  -7.618514448404e-02  -1.526049971581e-01 
  6.376489531249e-03  -7.618514448404e-02  -1.526049971581e-01   0.000000000000e+00   4.924670234323e-02  -1.785542964935e-01   0.000000000000e+00   4.924670234323e-02  -1.785542964935e-01 
 -8.924916386604e-03  -3.057739883661e-02  -1.733140498400e-01  -2.675340510905e-02   2.434000000358e-02  -1.573712229729e-01  -1.023932844400e-01   8.485302329063e-02  -1.622796058655e-01 
 -1.638861447573e-01   1.915815845132e-02  -1.725735813379e-01  -7.676119357347e-02  -2.960367826745e-03  -2.094676494598e-01   1.071775108576e-01   1.955791935325e-02  -1.397481113672e-01 
  1.260561645031e-01  -1.067005097866e-01  -1.489140689373e-01   1.260561645031e-01  -1.067005097866e-01  -1.489140689373e-01   0.000000000000e+00   9.793257713318e-02  -2.472033500671e-01 
  0.000000000000e+00   9.793257713318e-02  -2.472033500671e-01  -4.333817958832e-02  -1.096719689667e-02  -2.293862402439e-01   4.940540716052e-02  -1.844742521644e-02  -1.642722636461e-01 
 -1.279558427632e-02   2.715772204101e-02  -1.490754336119e-01  -7.361180335283e-02   8.531663566828e-02  -1.407978385687e-01  -4.519014433026e-02   1.010714322329e-01  -1.523354500532e-01 
  5.463248491287e-02   2.651108428836e-02  -1.702986359596e-01   4.987649992108e-02  -1.541118025780e-01  -2.570223212242e-01   4.987649992108e-02  -1.541118025780e-01  -2.570223212242e-01 
  0.000000000000e+00   0.000000000000e+00  -2.194651961327e-01   0.000000000000e+00   0.000000000000e+00  -2.194651961327e-01   1.970501057804e-02   0.000000000000e+00  -2.027342468500e-01 
 -2.693571709096e-02   0.000000000000e+00  -1.814409494400e-01  -5.476358532906e-02   0.000000000000e+00  -1.984840333462e-01   5.556055158377e-02   0.000000000000e+00  -1.417103707790e-01 
  8.631373755634e-03   0.000000000000e+00  -1.476704031229e-01   7.829866558313e-02   0.000000000000e+00  -1.328577995300e-01   8.786030113697e-02   0.000000000000e+00  -1.480566561222e-01 
  8.786030113697e-02   0.000000000000e+00  -1.480566561222e-01   0.000000000000e+00   0.000000000000e+00  -2.194651961327e-01   0.000000000000e+00   0.000000000000e+00  -2.194651961327e-01 
  1.970501057804e-02   0.000000000000e+00  -2.027342468500e-01  -2.693571709096e-02   0.000000000000e+00  -1.814409494400e-01  -5.476358532906e-02   0.000000000000e+00  -1.984840333462e-01 
  5.556055158377e-02   0.000000000000e+00  -1.417103707790e-01   8.631373755634e-03   0.000000000000e+00  -1.476704031229e-01   7.829866558313e-02   0.000000000000e+00  -1.328577995300e-01 
  8.786030113697e-02   0.000000000000e+00  -1.480566561222e-01   8.786030113697e-02   0.000000000000e+00  -1.480566561222e-01   0.000000000000e+00  -7.539584487677e-02  -6.506857872009e-01 
  0.000000000000e+00  -7.539584487677e-02  -6.506857872009e-01   2.566637396812e-01  -4.531469941139e-02  -4.652179777622e-01   6.940014362335e-01  -1.109398156404e-02  -7.036679983139e-01 
  1.207686513662e-01  -6.655529141426e-02  -6.224085688591e-01  -1.652527973056e-02   1.971486210823e-02  -8.695619106293e-01   2.049314789474e-02  -1.096763648093e-02  -6.454510688782e-01 
 -2.275757864118e-02  -2.482307553291e-01  -5.838389992714e-01  -6.333760917187e-02   0.000000000000e+00  -4.038921892643e-01  -6.333760917187e-02   0.000000000000e+00  -4.038921892643e-01 
  0.000000000000e+00  -7.539584487677e-02  -6.506857872009e-01   0.000000000000e+00  -7.539584487677e-02  -6.506857872009e-01   2.566637396812e-01  -4.531469941139e-02  -4.652179777622e-01 
  6.940014362335e-01  -1.109398156404e-02  -7.036679983139e-01   1.207686513662e-01  -6.655529141426e-02  -6.224085688591e-01  -1.652527973056e-02   1.971486210823e-02  -8.695619106293e-01 
  2.049314789474e-02  -1.096763648093e-02  -6.454510688782e-01  -2.275757864118e-02  -2.482307553291e-01  -5.838389992714e-01  -6.333760917187e-02   0.000000000000e+00  -4.038921892643e-01 
 -6.333760917187e-02   0.000000000000e+00  -4.038921892643e-01   0.000000000000e+00   7.655303925276e-02  -6.324163675308e-01   0.000000000000e+00   7.655303925276e-02  -6.324163675308e-01 
  1.630368381739e-01   5.987374857068e-02  -3.371697068214e-01   4.685595631599e-01  -2.684492990375e-02  -6.074509024620e-01   4.556954838336e-03  -1.924006044865e-01  -4.256669878960e-01 
  2.861053347588e-01   5.989384651184e-02  -1.691033840179e-01   2.361471503973e-01  -7.797888666391e-02  -1.062786057591e-01   2.592297829688e-02  -5.633084177971e-01  -5.962365493178e-02 
  6.458423286676e-02  -1.514640688896e+00   4.022513031960e-01   6.458423286676e-02  -1.514640688896e+00   4.022513031960e-01   0.000000000000e+00  -2.305040322244e-02  -7.855508327484e-01 
  0.000000000000e+00  -2.305040322244e-02  -7.855508327484e-01   2.712832987309e-01   8.323321118951e-03  -5.118098855019e-01   4.215068817139e-01   3.856542333961e-02  -8.660943508148e-01 
  4.526790603995e-02  -3.510928899050e-02  -5.329553484917e-01   7.266204357147e-01  -5.854268744588e-02  -2.286016792059e-01   5.640417933464e-01  -3.849503770471e-02  -4.996582567692e-01 
  1.300799697638e-01  -4.694768190384e-01  -4.981101751328e-01   7.019278407097e-02  -1.286877870560e+00   1.117060780525e-01   7.019278407097e-02  -1.286877870560e+00   1.117060780525e-01 
  0.000000000000e+00   5.144630745053e-02  -5.901142358780e-01   0.000000000000e+00   5.144630745053e-02  -5.901142358780e-01   2.284236699343e-01   1.154933273792e-01  -3.370926976204e-01 
  4.608285427094e-01   8.396946638823e-02  -5.257661342621e-01   6.980054080486e-02   7.186895608902e-02  -3.485108017921e-01   1.544827520847e-01   2.226458042860e-01  -2.366662323475e-01 
 -4.473578929901e-02  -1.161618810147e-02  -5.155246853828e-01  -5.223988741636e-02  -2.569843456149e-02  -3.011279106140e-01   1.370745152235e-01   5.196405947208e-02   1.658131927252e-01 
  1.370745152235e-01   5.196405947208e-02   1.658131927252e-01   0.000000000000e+00   3.328791633248e-02  -6.669196486473e-01   0.000000000000e+00   3.328791633248e-02  -6.669196486473e-01 
  2.536897957325e-01   8.586817979813e-02  -5.649521350861e-01   4.076459705830e-01   7.750124484301e-02  -6.278648376465e-01   3.055994212627e-01  -3.475242480636e-02   2.735533053055e-03 
  6.266604065895e-01  -1.371955778450e-02  -8.263254165649e-02   1.355983763933e-01   2.582153305411e-02  -1.982239931822e-01   2.641854807734e-02   1.609445549548e-02  -6.394449472427e-01 
  7.539001293480e-03   3.534480556846e-02  -6.606501340866e-01   7.539001293480e-03   3.534480556846e-02  -6.606501340866e-01   0.000000000000e+00  -4.837726056576e-02  -5.047821998596e-01 
  0.000000000000e+00  -4.837726056576e-02  -5.047821998596e-01   2.261845171452e-01  -4.390157014132e-02  -5.115287303925e-01   4.652346074581e-01  -3.364730998874e-02  -9.445361495018e-01 
  8.593927621841e-01  -2.044631913304e-02  -8.209939002991e-01   2.789128124714e-01  -8.310251682997e-02  -4.602042138577e-01   6.243916600943e-02  -4.303144291043e-02  -2.071092128754e-01 
  8.047751337290e-02   2.159875780344e-01  -4.359201788902e-01   7.676392793655e-02   6.596860289574e-01  -4.217487573624e-01   7.676392793655e-02   6.596860289574e-01  -4.217487573624e-01 
  0.000000000000e+00   1.067374199629e-01  -5.145468711853e-01   0.000000000000e+00   1.067374199629e-01  -5.145468711853e-01   3.147405982018e-01  -2.852425724268e-02  -3.633230030537e-01 
  2.356002330780e-01  -5.970940925181e-03  -6.377341747284e-01   9.615321643651e-03   5.205990746617e-02  -4.459067881107e-01   6.075034663081e-02   1.296363174915e-01  -5.279391407967e-01 
 -1.570465117693e-01   1.106409952044e-01  -4.948582351208e-01  -7.033901661634e-02  -4.217807948589e-02  -6.288582682610e-01  -9.379173628986e-03  -1.834731549025e-01  -7.332462072372e-01 
 -9.379173628986e-03  -1.834731549025e-01  -7.332462072372e-01   0.000000000000e+00   0.000000000000e+00  -8.117108345032e-01   0.000000000000e+00   0.000000000000e+00  -8.117108345032e-01 
  5.664640069008e-01   0.000000000000e+00  -4.948737025261e-01   7.805367112160e-01   0.000000000000e+00  -4.412449896336e-01   2.298167645931e-01   0.000000000000e+00  -1.890385597944e-01 
  3.834679424763e-01   6.686920532957e-04  -5.747646689415e-01  -3.850280642509e-01   0.000000000000e+00  -7.974759936333e-01  -3.202812671661e-01   0.000000000000e+00  -5.548418164253e-01 
  5.544714257121e-02   0.000000000000e+00  -8.597407937050e-01   5.544714257121e-02   0.000000000000e+00  -8.597407937050e-01   0.000000000000e+00   0.000000000000e+00  -8.117108345032e-01 
  0.000000000000e+00   0.000000000000e+00  -8.117108345032e-01   5.664640069008e-01   0.000000000000e+00  -4.948737025261e-01   7.805367112160e-01   0.000000000000e+00  -4.412449896336e-01 
  2.298167645931e-01   0.000000000000e+00  -1.890385597944e-01   3.834679424763e-01   6.686920532957e-04  -5.747646689415e-01  -3.850280642509e-01   0.000000000000e+00  -7.974759936333e-01 
 -3.202812671661e-01   0.000000000000e+00  -5.548418164253e-01   5.544714257121e-02   0.000000000000e+00  -8.597407937050e-01   5.544714257121e-02   0.000000000000e+00  -8.597407937050e-01 
  0.000000000000e+00   6.664323806763e-02  -1.827248036861e-01   0.000000000000e+00   6.664323806763e-02  -1.827248036861e-01   1.448363512754e-01   3.560407832265e-02   2.623676881194e-02 
  2.783896923065e-01   6.831805221736e-03  -3.390130698681e-01   1.337359696627e-01  -2.677176892757e-02  -4.432385563850e-01   0.000000000000e+00   5.915920063853e-02  -1.000000014901e-01 
 -4.718303307891e-02   5.283948406577e-02  -9.094144701958e-01  -3.307431563735e-02  -3.053733520210e-02  -9.023600816727e-01   1.129677668214e-01  -5.585444569588e-01  -9.337469190359e-02 
  1.129677668214e-01  -5.585444569588e-01  -9.337469190359e-02   0.000000000000e+00   6.664323806763e-02  -1.827248036861e-01   0.000000000000e+00   6.664323806763e-02  -1.827248036861e-01 
  1.448363512754e-01   3.560407832265e-02   2.623676881194e-02   2.783896923065e-01   6.831805221736e-03  -3.390130698681e-01   1.337359696627e-01  -2.677176892757e-02  -4.432385563850e-01 
  0.000000000000e+00   5.915920063853e-02  -1.000000014901e-01  -4.718303307891e-02   5.283948406577e-02  -9.094144701958e-01  -3.307431563735e-02  -3.053733520210e-02  -9.023600816727e-01 
  1.129677668214e-01  -5.585444569588e-01  -9.337469190359e-02   1.129677668214e-01  -5.585444569588e-01  -9.337469190359e-02   0.000000000000e+00   7.843346893787e-02  -6.993348151445e-02 
  0.000000000000e+00   7.843346893787e-02  -6.993348151445e-02   1.410939246416e-01   5.629182606936e-02   1.077647786587e-02   4.222019910812e-01  -9.061806835234e-03  -5.485776662827e-01 
  0.000000000000e+00   2.417734637856e-02  -3.221834599972e-01   5.031695365906e-01   6.292807310820e-02   1.110875885934e-02   3.909122571349e-02   6.694820523262e-02   2.096998393536e-01 
  2.756514120847e-03  -1.209583505988e-01   8.556815236807e-02   6.370172649622e-02  -1.496928811073e+00   4.656930863857e-01   6.370172649622e-02  -1.496928811073e+00   4.656930863857e-01 
  0.000000000000e+00   9.241272509098e-02  -2.828187942505e-01   0.000000000000e+00   9.241272509098e-02  -2.828187942505e-01   1.550104171038e-01  -6.931495666504e-02  -1.868501007557e-01 
  4.548954963684e-01  -5.759122595191e-02  -4.735421538353e-01   2.614669799805e-01  -2.603813633323e-02  -2.544557750225e-01   6.809679269791e-01  -5.914228782058e-02   2.051210403442e-01 
  6.040341854095e-01   0.000000000000e+00  -1.605778932571e-01   2.026252001524e-01  -6.275495886803e-01  -2.987876534462e-01   9.032534807920e-02  -1.466257214546e+00   3.264823257923e-01 
  9.032534807920e-02  -1.466257214546e+00   3.264823257923e-01   0.000000000000e+00  -4.436857253313e-02  -3.132387101650e-01   0.000000000000e+00  -4.436857253313e-02  -3.132387101650e-01 
  1.998548060656e-01  -1.951077580452e-02  -1.202521994710e-01   3.098618090153e-01   2.351686358452e-02  -6.783905029297e-01   5.431475583464e-03   1.995257334784e-03  -5.053589940071e-01 
  5.779049396515e-01  -6.036956608295e-02  -1.717276722193e-01   1.103998273611e-01   1.373865455389e-02  -4.544459581375e-01  -1.029448397458e-02   8.431131951511e-03  -2.343274801970e-01 
  1.344387680292e-01   5.677069351077e-02  -1.449119597673e-01   1.344387680292e-01   5.677069351077e-02  -1.449119597673e-01   0.000000000000e+00   2.195618301630e-02  -3.491332828999e-01 
  0.000000000000e+00   2.195618301630e-02  -3.491332828999e-01   3.275384008884e-01   2.569599077106e-02  -3.632253408432e-01   5.241997838020e-01   5.499581620097e-02  -5.009795427322e-01 
 -1.883118450642e-01  -6.624104827642e-02  -4.095154404640e-01   1.108564734459e+00  -3.058668226004e-02  -8.572206832469e-03  -5.470109730959e-02   1.417488325387e-02  -4.556699991226e-01 
  0.000000000000e+00   4.409779608250e-02  -5.737690329552e-01   7.394036743790e-03   8.714158087969e-02  -4.858587086201e-01   7.394036743790e-03   8.714158087969e-02  -4.858587086201e-01 
  0.000000000000e+00  -4.204508289695e-02  -2.266731113195e-01   0.000000000000e+00  -4.204508289695e-02  -2.266731113195e-01   3.295569121838e-01  -5.801745504141e-02  -1.394034475088e-01 
  6.374306082726e-01   2.776461769827e-04  -5.364343523979e-01   7.784963250160e-01   1.042238846421e-01  -4.329333305359e-01   7.096891403198e-01  -1.738347299397e-02  -4.590849280357e-01 
  2.722940146923e-01  -1.476878393441e-02  -3.470555245876e-01  -5.888355374336e-01   8.552786894143e-03  -4.231397807598e-01  -4.053100347519e-01   0.000000000000e+00  -2.677659690380e-01 
 -4.053100347519e-01   0.000000000000e+00  -2.677659690380e-01   0.000000000000e+00   4.418792948127e-02  -2.551591098309e-01   0.000000000000e+00   4.418792948127e-02  -2.551591098309e-01 
  1.392102837563e-01   5.989923328161e-02  -2.483219802380e-01   3.750375509262e-01   1.615010946989e-02  -6.837661266327e-01   3.730615377426e-01   5.319255962968e-02  -5.320462584496e-01 
  3.263137042522e-01   7.149150222540e-02  -4.984756112099e-01  -6.025146842003e-01   7.033519446850e-02  -5.067517757416e-01  -7.312393784523e-01   4.704511165619e-02  -4.635914564133e-01 
 -1.596059352160e-01   8.302579633892e-03  -1.183792114258e+00  -1.596059352160e-01   8.302579633892e-03  -1.183792114258e+00   0.000000000000e+00   0.000000000000e+00  -5.769472122192e-01 
  0.000000000000e+00   0.000000000000e+00  -5.769472122192e-01  -2.269957773387e-02   0.000000000000e+00  -3.791725933552e-01   3.776248991489e-01   5.383369978517e-03  -5.318227410316e-01 
  2.692137062550e-01   1.196670229547e-03  -4.350276291370e-01   3.416291773319e-01   9.409368038177e-03  -5.012086629868e-01  -3.888247311115e-01   0.000000000000e+00  -4.031091928482e-01 
 -4.824145734310e-01  -2.530446741730e-03  -4.511262774467e-01  -6.114535927773e-01   8.302579633892e-03  -1.000000014901e-01  -6.114535927773e-01   8.302579633892e-03  -1.000000014901e-01 
  0.000000000000e+00   0.000000000000e+00  -5.769472122192e-01   0.000000000000e+00   0.000000000000e+00  -5.769472122192e-01  -2.269957773387e-02   0.000000000000e+00  -3.791725933552e-01 
  3.776248991489e-01   5.383369978517e-03  -5.318227410316e-01   2.692137062550e-01   1.196670229547e-03  -4.350276291370e-01   3.416291773319e-01   9.409368038177e-03  -5.012086629868e-01 
 -3.888247311115e-01   0.000000000000e+00  -4.031091928482e-01  -4.824145734310e-01  -2.530446741730e-03  -4.511262774467e-01  -6.114535927773e-01   8.302579633892e-03  -1.000000014901e-01 
 -6.114535927773e-01   8.302579633892e-03  -1.000000014901e-01   0.000000000000e+00   5.006122216582e-02  -2.266241312027e-01   0.000000000000e+00   5.006122216582e-02  -2.266241312027e-01 
  1.308658421040e-01   1.710249111056e-02  -1.723334640265e-01   3.930768668652e-01   0.000000000000e+00  -2.621442675591e-01   0.000000000000e+00  -2.789356745780e-02  -2.544758021832e-01 
  1.461220145226e+00  -1.498629599810e-01  -1.000000014901e-01   0.000000000000e+00   0.000000000000e+00  -8.953057527542e-01   0.000000000000e+00  -2.867932058871e-02  -9.023600816727e-01 
  0.000000000000e+00  -5.328921079636e-01  -3.418435156345e-01   0.000000000000e+00  -5.328921079636e-01  -3.418435156345e-01   0.000000000000e+00   5.006122216582e-02  -2.266241312027e-01 
  0.000000000000e+00   5.006122216582e-02  -2.266241312027e-01   1.308658421040e-01   1.710249111056e-02  -1.723334640265e-01   3.930768668652e-01   0.000000000000e+00  -2.621442675591e-01 
  0.000000000000e+00  -2.789356745780e-02  -2.544758021832e-01   1.461220145226e+00  -1.498629599810e-01  -1.000000014901e-01   0.000000000000e+00   0.000000000000e+00  -8.953057527542e-01 
  0.000000000000e+00  -2.867932058871e-02  -9.023600816727e-01   0.000000000000e+00  -5.328921079636e-01  -3.418435156345e-01   0.000000000000e+00  -5.328921079636e-01  -3.418435156345e-01 
  0.000000000000e+00   9.318863041699e-03  -1.501183807850e-01   0.000000000000e+00   9.318863041699e-03  -1.501183807850e-01   1.427357643843e-01   5.884513724595e-03  -1.566319316626e-01 
  2.275443673134e-01  -4.768417030573e-02  -3.466891348362e-01   5.946456640959e-02   0.000000000000e+00  -3.708356320858e-01   0.000000000000e+00  -1.558688431978e-01  -5.144774913788e-02 
  1.956093870103e-02   0.000000000000e+00  -1.000000014901e-01   6.351882126182e-03  -5.604608356953e-02  -2.603197991848e-01   5.584200099111e-02  -1.014338254929e+00  -1.000000014901e-01 
  5.584200099111e-02  -1.014338254929e+00  -1.000000014901e-01   0.000000000000e+00   9.828351438046e-02  -1.822867691517e-01   0.000000000000e+00   9.828351438046e-02  -1.822867691517e-01 
  1.099532544613e-01  -1.194253712893e-01  -1.830816566944e-01   3.291046321392e-01  -6.567101180553e-02  -1.960606426001e-01   6.845799088478e-02   0.000000000000e+00  -2.028889358044e-01 
  3.689305186272e-01  -3.008394688368e-02  -1.000000014901e-01   5.131242275238e-01  -1.757588470355e-03  -1.280680000782e-01   2.628656625748e-01  -3.646450638771e-01  -2.381564527750e-01 
  6.415365636349e-02   0.000000000000e+00  -1.000000014901e-01   6.415365636349e-02   0.000000000000e+00  -1.000000014901e-01   0.000000000000e+00   1.835724338889e-02  -3.008520901203e-01 
  0.000000000000e+00   1.835724338889e-02  -3.008520901203e-01   1.087078601122e-01  -6.358287483454e-02  -2.536811828613e-01   2.535594701767e-01  -6.385196745396e-02  -4.763345718384e-01 
 -2.800047397614e-01   1.017802804708e-01  -1.974101811647e-01   2.421918809414e-01   4.751724749804e-02  -1.902003586292e-01   2.536914646626e-01   2.732499502599e-02  -2.816261649132e-01 
 -1.574848294258e-01   9.181888774037e-03  -1.703955978155e-01   3.748219693080e-03   0.000000000000e+00  -1.000000014901e-01   3.748219693080e-03   0.000000000000e+00  -1.000000014901e-01 
  0.000000000000e+00   4.737239703536e-02  -4.418031275272e-01   0.000000000000e+00   4.737239703536e-02  -4.418031275272e-01   2.469421029091e-01   5.837715696543e-03  -4.150325059891e-01 
  2.894200086594e-01   2.050974220037e-01  -6.156786680222e-01  -3.642992675304e-01   2.576015591621e-01  -1.343833506107e-01   5.799764394760e-01   1.991011202335e-01  -1.928000003099e-01 
  3.533553481102e-01   7.769925892353e-02  -1.198909059167e-01  -3.988048732281e-01   2.090597897768e-02  -8.273950964212e-02  -4.045384526253e-01   0.000000000000e+00  -1.000000014901e-01 