# vtk DataFile Version 2.0
Written using VisIt writer
ASCII
DATASET RECTILINEAR_GRID
DIMENSIONS 10 10 10
X_COORDINATES 10 float
  0.000000000000e+00   5.000000000000e-01   1.000000000000e+00   1.500000000000e+00   2.000000000000e+00   2.500000000000e+00   3.000000000000e+00   3.500000000000e+00   4.000000000000e+00 
  4.500000000000e+00 
Y_COORDINATES 10 float
  0.000000000000e+00   5.000000000000e-01   1.000000000000e+00   1.500000000000e+00   2.000000000000e+00   2.500000000000e+00   3.000000000000e+00   3.500000000000e+00   4.000000000000e+00 
  4.500000000000e+00 
Z_COORDINATES 10 float
  0.000000000000e+00   5.000000000000e-01   1.000000000000e+00   1.500000000000e+00   2.000000000000e+00   2.500000000000e+00   3.000000000000e+00   3.500000000000e+00   4.000000000000e+00 
  4.500000000000e+00 
CELL_DATA 729
POINT_DATA 1000
VECTORS velocity float
  0.000000000000e+00  -2.120502889156e-01  -5.753600001335e-01   6.409009434272e-10   2.330132531370e-09   2.665739184948e-09   2.685248091439e-06   6.409978658972e-10   6.235323368742e-10 
  1.047482416034e-01  -1.957960724831e-01  -4.948015213013e-01   6.700733301557e-10   8.142401683453e-13   1.357144891258e-19   6.337064206718e-10   1.724700808836e-07   6.410545982938e-10 
 -6.631708145142e-02  -2.230056524277e-01  -5.769259929657e-01   2.640485945449e-06   6.701442178958e-10   6.409694996989e-10   1.680083369138e-04   2.330132531370e-09   6.664347962371e-10 
 -1.704226434231e-01  -2.589907348156e-01  -7.176672816277e-01   0.000000000000e+00  -2.120502889156e-01  -5.753600001335e-01   6.409690556097e-10   8.142401683453e-13   1.356847106238e-19 
 -8.185669034719e-02  -2.253013998270e-01  -7.230426669121e-01   1.047482416034e-01  -1.957960724831e-01  -4.948015213013e-01   6.409689445874e-10   6.409690556097e-10   6.409690556097e-10 
 -7.102574408054e-02  -1.887463927269e-01  -3.986146450043e-01  -6.631708145142e-02  -2.230056524277e-01  -5.769259929657e-01   1.356847106238e-19   6.336922098171e-10   6.409690556097e-10 
 -1.704226434231e-01  -2.589907348156e-01  -7.176672816277e-01  -1.704226434231e-01  -2.589907348156e-01  -7.176672816277e-01   0.000000000000e+00   9.783360362053e-02  -4.179362952709e-01 
  0.000000000000e+00   9.783360362053e-02  -4.179362952709e-01  -1.601855307817e-01   4.863995313644e-02  -5.790489912033e-01  -4.041292890906e-02   2.020587772131e-02  -5.620056986809e-01 
 -9.827419370413e-02  -6.618979573250e-02  -7.923927307129e-01   1.032204329967e-01  -7.315681129694e-02  -5.356302261353e-01   1.643858850002e-02  -3.592066059355e-04  -6.104552745819e-01 
 -4.164016991854e-02  -1.892833597958e-02  -4.693662524223e-01  -1.263662874699e-01   1.675904728472e-03  -5.319436192513e-01  -1.263662874699e-01   1.675904728472e-03  -5.319436192513e-01 
  0.000000000000e+00   3.690982982516e-02  -4.470206797123e-01   0.000000000000e+00   3.690982982516e-02  -4.470206797123e-01  -1.026156470180e-01   8.886890113354e-02  -5.480998158455e-01 
 -1.229594741017e-02   1.203722506762e-01  -3.853008151054e-01  -1.043269112706e-01   1.037011444569e-01  -4.343153834343e-01  -6.807272136211e-02   5.985948443413e-02  -5.264936089516e-01 
 -8.001475036144e-02   1.287053991109e-02  -9.119110107422e-01   3.948688879609e-02  -1.023047603667e-02  -5.430620312691e-01  -4.445540159941e-02  -3.178174421191e-02  -5.769079327583e-01 
 -4.445540159941e-02  -3.178174421191e-02  -5.769079327583e-01   0.000000000000e+00  -2.442702092230e-02  -5.513983964920e-01   0.000000000000e+00  -2.442702092230e-02  -5.513983964920e-01 
 -1.366904973984e-01  -4.287778586149e-02  -8.291997313499e-01   8.889100700617e-02  -8.930403739214e-02  -5.982441306114e-01   3.358317539096e-02   2.138920314610e-02  -5.980896353722e-01 
 -1.352924853563e-02   5.889443308115e-02  -4.210895895958e-01  -1.203251406550e-01   9.626065194607e-02  -4.580900669098e-01  -8.286473900080e-02   1.016240101308e-02  -5.995246171951e-01 
 -1.239823773503e-01  -2.618013508618e-02  -9.003417491913e-01  -1.239823773503e-01  -2.618013508618e-02  -9.003417491913e-01   0.000000000000e+00   7.301575690508e-02  -3.689803779125e-01 
  0.000000000000e+00   7.301575690508e-02  -3.689803779125e-01  -2.131445705891e-01   6.151285767555e-02  -4.373200833797e-01  -6.270520389080e-02  -5.515828728676e-02  -6.045238971710e-01 
 -9.172292053699e-02  -6.345899403095e-02  -9.462788701057e-01   9.659531712532e-02  -1.037983447313e-01  -6.316584944725e-01   9.658856317401e-03   6.463859230280e-03  -5.721800327301e-01 
 -2.739211544394e-02   5.782973486930e-03  -4.194278419018e-01  -1.316718906164e-01   2.594975940883e-02  -4.516376852989e-01  -1.316718906164e-01   2.594975940883e-02  -4.516376852989e-01 
  0.000000000000e+00  -1.283306181431e-01  -5.121988058090e-01   0.000000000000e+00  -1.283306181431e-01  -5.121988058090e-01  -7.552389800549e-02   6.671898812056e-02  -5.895971655846e-01 
 -1.178105361760e-02   1.363229751587e-01  -4.202064871788e-01  -1.558815389872e-01   1.249375566840e-01  -4.823993444443e-01  -1.215873733163e-01  -3.465012460947e-02  -7.085932493210e-01 
 -1.386653780937e-01  -7.624667137861e-02  -8.791559934616e-01   2.509689331055e-02  -9.804538637400e-02  -5.707001686096e-01  -4.903844371438e-02  -1.411969028413e-02  -6.007684469223e-01 
 -4.903844371438e-02  -1.411969028413e-02  -6.007684469223e-01   0.000000000000e+00  -1.200935468078e-01  -5.284274220467e-01   0.000000000000e+00  -1.200935468078e-01  -5.284274220467e-01 
 -1.343719363213e-01  -1.257705502212e-02  -7.547129392624e-01   4.148080572486e-02   8.956479281187e-02  -5.085780024529e-01   5.230015143752e-02   1.485450565815e-01  -5.050667524338e-01 
 -1.384177990258e-02   1.258066594601e-01  -4.130957126617e-01  -1.365799009800e-01   4.995476827025e-02  -4.613247811794e-01  -1.017987057567e-01  -6.861352920532e-02  -5.562188029289e-01 
 -1.082939356565e-01  -6.023783236742e-02  -6.941962838173e-01  -1.082939356565e-01  -6.023783236742e-02  -6.941962838173e-01   0.000000000000e+00   0.000000000000e+00  -4.050227999687e-01 
  0.000000000000e+00   0.000000000000e+00  -4.050227999687e-01  -2.530681192875e-01   0.000000000000e+00  -5.193820595741e-01  -1.624197512865e-01   0.000000000000e+00  -5.221608281136e-01 
 -4.769741371274e-02   0.000000000000e+00  -8.786438703537e-01   2.093569785357e-01   0.000000000000e+00  -5.299676656723e-01   1.652850806713e-01   0.000000000000e+00  -4.312159121037e-01 
  3.566617146134e-02   0.000000000000e+00  -4.423982799053e-01   2.137012779713e-02   0.000000000000e+00  -4.679256677628e-01   2.137012779713e-02   0.000000000000e+00  -4.679256677628e-01 
  0.000000000000e+00   0.000000000000e+00  -4.050227999687e-01   0.000000000000e+00   0.000000000000e+00  -4.050227999687e-01  -2.530681192875e-01   0.000000000000e+00  -5.193820595741e-01 
 -1.624197512865e-01   0.000000000000e+00  -5.221608281136e-01  -4.769741371274e-02   0.000000000000e+00  -8.786438703537e-01   2.093569785357e-01   0.000000000000e+00  -5.299676656723e-01 
  1.652850806713e-01   0.000000000000e+00  -4.312159121037e-01   3.566617146134e-02   0.000000000000e+00  -4.423982799053e-01   2.137012779713e-02   0.000000000000e+00  -4.679256677628e-01 
  2.137012779713e-02   0.000000000000e+00  -4.679256677628e-01   0.000000000000e+00  -2.120502889156e-01  -5.753600001335e-01   0.000000000000e+00  -2.120502889156e-01  -5.753600001335e-01 
 -8.185669034719e-02  -2.253013998270e-01  -7.230426669121e-01   1.047482416034e-01  -1.957960724831e-01  -4.948015213013e-01  -1.629222370684e-02  -1.917648911476e-01  -4.421570897102e-01 
 -7.102574408054e-02  -1.887463927269e-01  -3.986146450043e-01  -6.631708145142e-02  -2.230056524277e-01  -5.769259929657e-01  -8.841398358345e-02  -2.324494719505e-01  -5.577591061592e-01 
 -1.704226434231e-01  -2.589907348156e-01  -7.176672816277e-01  -1.704226434231e-01  -2.589907348156e-01  -7.176672816277e-01   0.000000000000e+00  -2.120502889156e-01  -5.753600001335e-01 
  0.000000000000e+00  -2.120502889156e-01  -5.753600001335e-01  -8.185669034719e-02  -2.253013998270e-01  -7.230426669121e-01   1.047482416034e-01  -1.957960724831e-01  -4.948015213013e-01 
 -1.629222370684e-02  -1.917648911476e-01  -4.421570897102e-01  -7.102574408054e-02  -1.887463927269e-01  -3.986146450043e-01  -6.631708145142e-02  -2.230056524277e-01  -5.769259929657e-01 
 -8.841398358345e-02  -2.324494719505e-01  -5.577591061592e-01  -1.704226434231e-01  -2.589907348156e-01  -7.176672816277e-01  -1.704226434231e-01  -2.589907348156e-01  -7.176672816277e-01 
  0.000000000000e+00   9.783360362053e-02  -4.179362952709e-01   0.000000000000e+00   9.783360362053e-02  -4.179362952709e-01  -1.601855307817e-01   4.863995313644e-02  -5.790489912033e-01 
 -4.041292890906e-02   2.020587772131e-02  -5.620056986809e-01  -9.827419370413e-02  -6.618979573250e-02  -7.923927307129e-01   1.032204329967e-01  -7.315681129694e-02  -5.356302261353e-01 
  1.643858850002e-02  -3.592066059355e-04  -6.104552745819e-01  -4.164016991854e-02  -1.892833597958e-02  -4.693662524223e-01  -1.263662874699e-01   1.675904728472e-03  -5.319436192513e-01 
 -1.263662874699e-01   1.675904728472e-03  -5.319436192513e-01   0.000000000000e+00   3.690982982516e-02  -4.470206797123e-01   0.000000000000e+00   3.690982982516e-02  -4.470206797123e-01 
 -1.026156470180e-01   8.886890113354e-02  -5.480998158455e-01  -1.229594741017e-02   1.203722506762e-01  -3.853008151054e-01  -1.043269112706e-01   1.037011444569e-01  -4.343153834343e-01 
 -6.807272136211e-02   5.985948443413e-02  -5.264936089516e-01  -8.001475036144e-02   1.287053991109e-02  -9.119110107422e-01   3.948688879609e-02  -1.023047603667e-02  -5.430620312691e-01 
 -4.445540159941e-02  -3.178174421191e-02  -5.769079327583e-01  -4.445540159941e-02  -3.178174421191e-02  -5.769079327583e-01   0.000000000000e+00  -2.442702092230e-02  -5.513983964920e-01 
  0.000000000000e+00  -2.442702092230e-02  -5.513983964920e-01  -1.366904973984e-01  -4.287778586149e-02  -8.291997313499e-01   8.889100700617e-02  -8.930403739214e-02  -5.982441306114e-01 
  3.358317539096e-02   2.138920314610e-02  -5.980896353722e-01  -1.352924853563e-02   5.889443308115e-02  -4.210895895958e-01  -1.203251406550e-01   9.626065194607e-02  -4.580900669098e-01 
 -8.286473900080e-02   1.016240101308e-02  -5.995246171951e-01  -1.239823773503e-01  -2.618013508618e-02  -9.003417491913e-01  -1.239823773503e-01  -2.618013508618e-02  -9.003417491913e-01 
  0.000000000000e+00   7.301575690508e-02  -3.689803779125e-01   0.000000000000e+00   7.301575690508e-02  -3.689803779125e-01  -2.131445705891e-01   6.151285767555e-02  -4.373200833797e-01 
 -6.270520389080e-02  -5.515828728676e-02  -6.045238971710e-01  -9.172292053699e-02  -6.345899403095e-02  -9.462788701057e-01   9.659531712532e-02  -1.037983447313e-01  -6.316584944725e-01 
  9.658856317401e-03   6.463859230280e-03  -5.721800327301e-01  -2.739211544394e-02   5.782973486930e-03  -4.194278419018e-01  -1.316718906164e-01   2.594975940883e-02  -4.516376852989e-01 
 -1.316718906164e-01   2.594975940883e-02  -4.516376852989e-01   0.000000000000e+00  -1.283306181431e-01  -5.121988058090e-01   0.000000000000e+00  -1.283306181431e-01  -5.121988058090e-01 
 -7.552389800549e-02   6.671898812056e-02  -5.895971655846e-01  -1.178105361760e-02   1.363229751587e-01  -4.202064871788e-01  -1.558815389872e-01   1.249375566840e-01  -4.823993444443e-01 
 -1.215873733163e-01  -3.465012460947e-02  -7.085932493210e-01  -1.386653780937e-01  -7.624667137861e-02  -8.791559934616e-01   2.509689331055e-02  -9.804538637400e-02  -5.707001686096e-01 
 -4.903844371438e-02  -1.411969028413e-02  -6.007684469223e-01  -4.903844371438e-02  -1.411969028413e-02  -6.007684469223e-01   0.000000000000e+00  -1.200935468078e-01  -5.284274220467e-01 
  0.000000000000e+00  -1.200935468078e-01  -5.284274220467e-01  -1.343719363213e-01  -1.257705502212e-02  -7.547129392624e-01   4.148080572486e-02   8.956479281187e-02  -5.085780024529e-01 
  5.230015143752e-02   1.485450565815e-01  -5.050667524338e-01  -1.384177990258e-02   1.258066594601e-01  -4.130957126617e-01  -1.365799009800e-01   4.995476827025e-02  -4.613247811794e-01 
 -1.017987057567e-01  -6.861352920532e-02  -5.562188029289e-01  -1.082939356565e-01  -6.023783236742e-02  -6.941962838173e-01  -1.082939356565e-01  -6.023783236742e-02  -6.941962838173e-01 
  0.000000000000e+00   0.000000000000e+00  -4.050227999687e-01   0.000000000000e+00   0.000000000000e+00  -4.050227999687e-01  -2.530681192875e-01   0.000000000000e+00  -5.193820595741e-01 
 -1.624197512865e-01   0.000000000000e+00  -5.221608281136e-01  -4.769741371274e-02   0.000000000000e+00  -8.786438703537e-01   2.093569785357e-01   0.000000000000e+00  -5.299676656723e-01 
  1.652850806713e-01   0.000000000000e+00  -4.312159121037e-01   3.566617146134e-02   0.000000000000e+00  -4.423982799053e-01   2.137012779713e-02   0.000000000000e+00  -4.679256677628e-01 
  2.137012779713e-02   0.000000000000e+00  -4.679256677628e-01   0.000000000000e+00   0.000000000000e+00  -4.050227999687e-01   0.000000000000e+00   0.000000000000e+00  -4.050227999687e-01 
 -2.530681192875e-01   0.000000000000e+00  -5.193820595741e-01  -1.624197512865e-01   0.000000000000e+00  -5.221608281136e-01  -4.769741371274e-02   0.000000000000e+00  -8.786438703537e-01 
  2.093569785357e-01   0.000000000000e+00  -5.299676656723e-01   1.652850806713e-01   0.000000000000e+00  -4.312159121037e-01   3.566617146134e-02   0.000000000000e+00  -4.423982799053e-01 
  2.137012779713e-02   0.000000000000e+00  -4.679256677628e-01   2.137012779713e-02   0.000000000000e+00  -4.679256677628e-01   0.000000000000e+00  -2.405807673931e-01  -8.156843185425e-01 
  0.000000000000e+00  -2.405807673931e-01  -8.156843185425e-01  -8.621820062399e-02  -2.469652146101e-01  -8.140529990196e-01  -2.527154609561e-02  -2.473276406527e-01  -8.821603655815e-01 
 -3.334656357765e-02  -2.576999366283e-01  -9.110482335091e-01  -4.197981581092e-02  -2.666827440262e-01  -9.561004042625e-01  -5.501700192690e-02  -2.722432017326e-01  -8.978819251060e-01 
 -3.487073257565e-02  -2.775967419147e-01  -8.383285403252e-01  -4.115710034966e-02  -2.794634699821e-01  -7.588115930557e-01  -4.115710034966e-02  -2.794634699821e-01  -7.588115930557e-01 
  0.000000000000e+00  -2.405807673931e-01  -8.156843185425e-01   0.000000000000e+00  -2.405807673931e-01  -8.156843185425e-01  -8.621820062399e-02  -2.469652146101e-01  -8.140529990196e-01 
 -2.527154609561e-02  -2.473276406527e-01  -8.821603655815e-01  -3.334656357765e-02  -2.576999366283e-01  -9.110482335091e-01  -4.197981581092e-02  -2.666827440262e-01  -9.561004042625e-01 
 -5.501700192690e-02  -2.722432017326e-01  -8.978819251060e-01  -3.487073257565e-02  -2.775967419147e-01  -8.383285403252e-01  -4.115710034966e-02  -2.794634699821e-01  -7.588115930557e-01 
 -4.115710034966e-02  -2.794634699821e-01  -7.588115930557e-01   0.000000000000e+00   3.726045787334e-02  -9.152523875237e-01   0.000000000000e+00   3.726045787334e-02  -9.152523875237e-01 
 -9.544942528009e-02   4.476743564010e-02  -8.713443279266e-01  -3.209239244461e-02   5.208687484264e-02  -8.493629097939e-01  -3.451661393046e-02   5.702296271920e-02  -7.794109582901e-01 
 -3.784131631255e-02   5.225641280413e-02  -9.152875542641e-01  -3.492404520512e-02   3.420606628060e-02  -9.364283680916e-01  -2.853559702635e-02   1.346491649747e-02  -9.578168988228e-01 
 -3.374503552914e-02   1.129112672061e-02  -9.513621330261e-01  -3.374503552914e-02   1.129112672061e-02  -9.513621330261e-01   0.000000000000e+00   7.230676244944e-03  -8.271651864052e-01 
  0.000000000000e+00   7.230676244944e-03  -8.271651864052e-01  -9.635956585407e-02  -7.233461365104e-04  -7.733139395714e-01  -4.607352614403e-02  -1.718684099615e-02  -9.063060879707e-01 
 -4.354500770569e-02  -1.188641507179e-02  -9.691849946976e-01  -3.396043553948e-02   5.730456672609e-03  -9.158890843391e-01  -3.300304338336e-02   1.745992153883e-02  -7.092206478119e-01 
 -3.681831806898e-02   3.596312925220e-02  -8.509331345558e-01  -2.813300676644e-02   4.600740969181e-02  -8.450122475624e-01  -2.813300676644e-02   4.600740969181e-02  -8.450122475624e-01 
  0.000000000000e+00   5.604464188218e-02  -7.085569500923e-01   0.000000000000e+00   5.604464188218e-02  -7.085569500923e-01  -9.739189594984e-02   5.267585068941e-02  -5.961984395981e-01 
 -4.635989293456e-02   5.566902831197e-02  -8.366732597351e-01  -3.611994907260e-02   5.254912003875e-02  -9.088372588158e-01  -3.330624848604e-02   4.679159820080e-02  -9.520014524460e-01 
 -3.725000843406e-02   4.196082800627e-02  -9.347674846649e-01  -2.471137233078e-02   5.583097413182e-02  -8.715036511421e-01  -2.877383306623e-02   5.436161160469e-02  -6.661528348923e-01 
 -2.877383306623e-02   5.436161160469e-02  -6.661528348923e-01   0.000000000000e+00  -1.960079371929e-02  -8.840485215187e-01   0.000000000000e+00  -1.960079371929e-02  -8.840485215187e-01 
 -9.925301373005e-02  -2.213582396507e-02  -8.899973034859e-01  -3.379300981760e-02  -1.705733500421e-02  -8.959923386574e-01  -4.290760308504e-02  -2.594003267586e-02  -6.755031347275e-01 
 -3.774103522301e-02  -3.539735451341e-02  -8.446998596191e-01  -3.536173328757e-02  -2.194743417203e-02  -9.071204066277e-01  -2.464245818555e-02  -1.813939772546e-02  -9.475172758102e-01 
 -3.009523823857e-02  -2.334165573120e-02  -8.986471891403e-01  -3.009523823857e-02  -2.334165573120e-02  -8.986471891403e-01   0.000000000000e+00  -8.770323358476e-03  -8.185780048370e-01 
  0.000000000000e+00  -8.770323358476e-03  -8.185780048370e-01  -8.644939213991e-02   1.096007507294e-02  -8.549423813820e-01  -2.876985073090e-02   1.623493805528e-02  -9.604757428169e-01 
 -3.780747950077e-02   1.823126710951e-02  -9.378995299339e-01  -3.090401738882e-02   3.080104291439e-02  -8.408208489418e-01  -5.575930699706e-02   1.553460117429e-02  -7.376484274864e-01 
 -4.321491345763e-02  -1.783700077794e-03  -8.552911877632e-01  -2.617180719972e-02  -4.297664418118e-05  -8.550948500633e-01  -2.617180719972e-02  -4.297664418118e-05  -8.550948500633e-01 
  0.000000000000e+00  -2.338968217373e-02  -7.239632010460e-01   0.000000000000e+00  -2.338968217373e-02  -7.239632010460e-01  -9.816354513168e-02  -2.492151781917e-02  -6.432280540466e-01 
 -2.670993097126e-02  -2.234235964715e-02  -8.647639751434e-01  -1.468903105706e-02   7.026270031929e-03  -9.346435070038e-01  -1.169033255428e-02   1.550974231213e-02  -9.515715241432e-01 
 -4.403224587440e-02   9.062063880265e-03  -9.357442855835e-01  -3.490684181452e-02   7.712901569903e-03  -8.395693898201e-01  -1.792516745627e-02   1.868436671793e-02  -6.830584406853e-01 
 -1.792516745627e-02   1.868436671793e-02  -6.830584406853e-01   0.000000000000e+00   0.000000000000e+00  -8.720503449440e-01   0.000000000000e+00   0.000000000000e+00  -8.720503449440e-01 
 -1.161333546042e-01   0.000000000000e+00  -8.490634560585e-01  -3.680265694857e-02   0.000000000000e+00  -8.027541041374e-01  -3.377421526238e-03   0.000000000000e+00  -6.421467065811e-01 
  4.304245579988e-03   0.000000000000e+00  -8.839264512062e-01  -2.513178251684e-02   0.000000000000e+00  -9.795879125595e-01  -1.665948703885e-02   0.000000000000e+00  -9.240872263908e-01 
 -2.389724366367e-03   0.000000000000e+00  -8.862100839615e-01  -2.389724366367e-03   0.000000000000e+00  -8.862100839615e-01   0.000000000000e+00   0.000000000000e+00  -8.720503449440e-01 
  0.000000000000e+00   0.000000000000e+00  -8.720503449440e-01  -1.161333546042e-01   0.000000000000e+00  -8.490634560585e-01  -3.680265694857e-02   0.000000000000e+00  -8.027541041374e-01 
 -3.377421526238e-03   0.000000000000e+00  -6.421467065811e-01   4.304245579988e-03   0.000000000000e+00  -8.839264512062e-01  -2.513178251684e-02   0.000000000000e+00  -9.795879125595e-01 
 -1.665948703885e-02   0.000000000000e+00  -9.240872263908e-01  -2.389724366367e-03   0.000000000000e+00  -8.862100839615e-01  -2.389724366367e-03   0.000000000000e+00  -8.862100839615e-01 
  0.000000000000e+00  -1.792781203985e-01  -4.907775819302e-01   0.000000000000e+00  -1.792781203985e-01  -4.907775819302e-01  -7.264287769794e-02  -2.000903189182e-01  -7.166029214859e-01 
 -4.627934470773e-02  -2.149630486965e-01  -9.069026112556e-01  -3.158714249730e-02  -2.238041907549e-01  -8.936377763748e-01  -2.647701837122e-02  -2.290260046721e-01  -8.770428299904e-01 
 -2.951461635530e-02  -2.354150414467e-01  -8.812062144279e-01  -2.486461773515e-02  -2.411359399557e-01  -8.660145998001e-01  -1.790964975953e-02  -2.452076822519e-01  -8.550605773926e-01 
 -1.790964975953e-02  -2.452076822519e-01  -8.550605773926e-01   0.000000000000e+00  -1.792781203985e-01  -4.907775819302e-01   0.000000000000e+00  -1.792781203985e-01  -4.907775819302e-01 
 -7.264287769794e-02  -2.000903189182e-01  -7.166029214859e-01  -4.627934470773e-02  -2.149630486965e-01  -9.069026112556e-01  -3.158714249730e-02  -2.238041907549e-01  -8.936377763748e-01 
 -2.647701837122e-02  -2.290260046721e-01  -8.770428299904e-01  -2.951461635530e-02  -2.354150414467e-01  -8.812062144279e-01  -2.486461773515e-02  -2.411359399557e-01  -8.660145998001e-01 
 -1.790964975953e-02  -2.452076822519e-01  -8.550605773926e-01  -1.790964975953e-02  -2.452076822519e-01  -8.550605773926e-01   0.000000000000e+00   6.747671216726e-02  -4.644819200039e-01 
  0.000000000000e+00   6.747671216726e-02  -4.644819200039e-01  -7.845071703196e-02   7.839610427618e-02  -7.119065523148e-01  -4.873532056808e-02   7.993298023939e-02  -9.021931290627e-01 
 -3.437851369381e-02   7.869590073824e-02  -9.051252603531e-01  -2.589478157461e-02   7.542158663273e-02  -8.898181319237e-01  -2.397518977523e-02   7.417781651020e-02  -8.885352611542e-01 
 -1.522094290704e-02   7.961087673903e-02  -8.678001761436e-01  -1.216942071915e-02   8.232564479113e-02  -8.549590110779e-01  -1.216942071915e-02   8.232564479113e-02  -8.549590110779e-01 
  0.000000000000e+00  -3.723423182964e-02  -4.549132883549e-01   0.000000000000e+00  -3.723423182964e-02  -4.549132883549e-01  -7.958547025919e-02  -4.909992218018e-02  -7.033386826515e-01 
 -3.947510570288e-02  -3.388660028577e-02  -8.806195855141e-01  -2.883345447481e-02  -2.864406630397e-02  -8.720512390137e-01  -3.345457836986e-02  -3.751328960061e-02  -8.801297545433e-01 
 -3.146521002054e-02  -4.425198584795e-02  -8.708986639977e-01  -1.614333316684e-02  -3.458898887038e-02  -8.629440665245e-01  -1.497589796782e-02  -3.171029686928e-02  -8.609332442284e-01 
 -1.497589796782e-02  -3.171029686928e-02  -8.609332442284e-01   0.000000000000e+00   4.443202912807e-02  -4.734596908092e-01   0.000000000000e+00   4.443202912807e-02  -4.734596908092e-01 
 -7.335992902517e-02   4.319667443633e-02  -6.959559321404e-01  -3.701479360461e-02   4.379656538367e-02  -8.880029916763e-01  -3.058866225183e-02   4.239320755005e-02  -9.002649188042e-01 
 -2.332540415227e-02   5.267722159624e-02  -8.795731067657e-01  -2.540695294738e-02   5.874929949641e-02  -8.703269958496e-01  -2.608437091112e-02   4.877217113972e-02  -8.782517313957e-01 
 -2.214505337179e-02   4.160548001528e-02  -8.582253456116e-01  -2.214505337179e-02   4.160548001528e-02  -8.582253456116e-01   0.000000000000e+00  -8.200143463910e-03  -4.249355792999e-01 
  0.000000000000e+00  -8.200143463910e-03  -4.249355792999e-01  -7.623130083084e-02  -1.025878451765e-02  -6.923933625221e-01  -4.922019690275e-02  -2.256502397358e-02  -8.951017260551e-01 
 -4.171904176474e-02  -2.924975380301e-02  -8.866604566574e-01  -2.137696184218e-02  -2.525790408254e-02  -8.845928907394e-01  -2.207454293966e-02  -1.920555345714e-02  -8.840566277504e-01 
 -1.627941057086e-02  -1.538795046508e-02  -8.622305989265e-01  -1.371451932937e-02  -7.012055255473e-03  -8.523157835007e-01  -1.371451932937e-02  -7.012055255473e-03  -8.523157835007e-01 
  0.000000000000e+00  -2.310176612809e-03  -4.659084677696e-01   0.000000000000e+00  -2.310176612809e-03  -4.659084677696e-01  -7.054156064987e-02   5.003039725125e-03  -7.109295129776e-01 
 -3.593314066529e-02   1.821676827967e-02  -8.828718662262e-01  -3.259722143412e-02   2.648172900081e-02  -8.870598077774e-01  -3.465558588505e-02   1.269189734012e-02  -9.007123708725e-01 
 -3.011578507721e-02   4.994891583920e-03  -8.827858567238e-01  -1.868179440498e-02   1.771979499608e-03  -8.699419498444e-01  -1.379774790257e-02   3.085816744715e-03  -8.577103018761e-01 
 -1.379774790257e-02   3.085816744715e-03  -8.577103018761e-01   0.000000000000e+00  -1.704257912934e-02  -4.623977541924e-01   0.000000000000e+00  -1.704257912934e-02  -4.623977541924e-01 
 -7.080212980509e-02  -1.839428395033e-02  -6.933925747871e-01  -3.383152559400e-02  -1.151357404888e-02  -8.801513910294e-01  -2.369944006205e-02  -4.729292704724e-04  -9.020030498505e-01 
 -1.735297590494e-02   1.019058190286e-02  -8.904784321785e-01  -2.665888704360e-02   1.133164670318e-02  -8.832290172577e-01  -3.080280311406e-02  -6.750642205589e-04  -8.855420947075e-01 
 -1.953633129597e-02  -7.128627970815e-03  -8.641598224640e-01  -1.953633129597e-02  -7.128627970815e-03  -8.641598224640e-01   0.000000000000e+00   0.000000000000e+00  -4.563696086407e-01 
  0.000000000000e+00   0.000000000000e+00  -4.563696086407e-01  -7.504544407129e-02   0.000000000000e+00  -7.117318511009e-01  -5.231721326709e-02   0.000000000000e+00  -8.917964696884e-01 
 -2.946771867573e-02   0.000000000000e+00  -8.737780451775e-01   2.479315269738e-03   0.000000000000e+00  -8.683312535286e-01  -1.882299035788e-02   0.000000000000e+00  -9.021959900856e-01 
 -2.870612218976e-02   0.000000000000e+00  -8.983095288277e-01  -9.101737290621e-03   0.000000000000e+00  -8.736974000931e-01  -9.101737290621e-03   0.000000000000e+00  -8.736974000931e-01 
  0.000000000000e+00   0.000000000000e+00  -4.563696086407e-01   0.000000000000e+00   0.000000000000e+00  -4.563696086407e-01  -7.504544407129e-02   0.000000000000e+00  -7.117318511009e-01 
 -5.231721326709e-02   0.000000000000e+00  -8.917964696884e-01  -2.946771867573e-02   0.000000000000e+00  -8.737780451775e-01   2.479315269738e-03   0.000000000000e+00  -8.683312535286e-01 
 -1.882299035788e-02   0.000000000000e+00  -9.021959900856e-01  -2.870612218976e-02   0.000000000000e+00  -8.983095288277e-01  -9.101737290621e-03   0.000000000000e+00  -8.736974000931e-01 
 -9.101737290621e-03   0.000000000000e+00  -8.736974000931e-01   0.000000000000e+00  -1.475303620100e-01  -5.092278122902e-01   0.000000000000e+00  -1.475303620100e-01  -5.092278122902e-01 
 -3.879781812429e-02  -1.592804640532e-01  -7.416609525681e-01  -3.017638809979e-02  -1.693712323904e-01  -9.245794415474e-01  -2.586502768099e-02  -1.775006800890e-01  -9.144027233124e-01 
 -2.487201057374e-02  -1.838781386614e-01  -9.117012023926e-01  -1.939323730767e-02  -1.882387846708e-01  -9.047593474388e-01  -1.572259888053e-02  -1.923621445894e-01  -8.963724374771e-01 
 -8.732495829463e-03  -1.949172765017e-01  -8.882122635841e-01  -8.732495829463e-03  -1.949172765017e-01  -8.882122635841e-01   0.000000000000e+00  -1.475303620100e-01  -5.092278122902e-01 
  0.000000000000e+00  -1.475303620100e-01  -5.092278122902e-01  -3.879781812429e-02  -1.592804640532e-01  -7.416609525681e-01  -3.017638809979e-02  -1.693712323904e-01  -9.245794415474e-01 
 -2.586502768099e-02  -1.775006800890e-01  -9.144027233124e-01  -2.487201057374e-02  -1.838781386614e-01  -9.117012023926e-01  -1.939323730767e-02  -1.882387846708e-01  -9.047593474388e-01 
 -1.572259888053e-02  -1.923621445894e-01  -8.963724374771e-01  -8.732495829463e-03  -1.949172765017e-01  -8.882122635841e-01  -8.732495829463e-03  -1.949172765017e-01  -8.882122635841e-01 
  0.000000000000e+00   1.028331294656e-01  -4.642501175404e-01   0.000000000000e+00   1.028331294656e-01  -4.642501175404e-01  -4.113593325019e-02   1.178120076656e-01  -7.201716303825e-01 
 -3.238727524877e-02   1.178073137999e-01  -9.208232164383e-01  -2.528542838991e-02   1.209908574820e-01  -9.086180925369e-01  -2.529149316251e-02   1.146979928017e-01  -9.066751599312e-01 
 -1.891956664622e-02   1.126427948475e-01  -9.014437794685e-01  -1.442876923829e-02   1.137072890997e-01  -8.991339206696e-01  -7.770197000355e-03   1.142317950726e-01  -8.972720503807e-01 
 -7.770197000355e-03   1.142317950726e-01  -8.972720503807e-01   0.000000000000e+00  -5.516717582941e-02  -5.048997402191e-01   0.000000000000e+00  -5.516717582941e-02  -5.048997402191e-01 
 -4.006609693170e-02  -6.608532369137e-02  -7.239985466003e-01  -3.404937684536e-02  -6.405809521675e-02  -8.999155163765e-01  -2.327768318355e-02  -6.050450354815e-02  -8.962233066559e-01 
 -2.248259261250e-02  -6.208743527532e-02  -8.878175020218e-01  -2.165605500340e-02  -6.130552291870e-02  -8.761211037636e-01  -1.495980005711e-02  -5.765562504530e-02  -8.741661310196e-01 
 -8.191948756576e-03  -5.606591328979e-02  -8.685220479965e-01  -8.191948756576e-03  -5.606591328979e-02  -8.685220479965e-01   0.000000000000e+00   3.939741104841e-02  -4.897783696651e-01 
  0.000000000000e+00   3.939741104841e-02  -4.897783696651e-01  -4.135009273887e-02   3.528292849660e-02  -7.197121977806e-01  -3.121300041676e-02   3.712382912636e-02  -9.104031920433e-01 
 -2.377297915518e-02   3.718583285809e-02  -9.051104187965e-01  -2.203984186053e-02   3.813071548939e-02  -9.025294780731e-01  -1.732164248824e-02   4.153520613909e-02  -8.981932401657e-01 
 -1.463155634701e-02   4.190674051642e-02  -8.887896537781e-01  -1.053092256188e-02   4.011194035411e-02  -8.768888711929e-01  -1.053092256188e-02   4.011194035411e-02  -8.768888711929e-01 
  0.000000000000e+00  -1.687094941735e-02  -4.625449776649e-01   0.000000000000e+00  -1.687094941735e-02  -4.625449776649e-01  -3.763300180435e-02  -1.650875993073e-02  -7.132615447044e-01 
 -3.201603144407e-02  -1.731055416167e-02  -9.139740467072e-01  -2.530489675701e-02  -1.958708465099e-02  -8.948507905006e-01  -2.194947190583e-02  -1.786585338414e-02  -8.910539150238e-01 
 -1.803615689278e-02  -1.470517087728e-02  -8.877346515656e-01  -1.442537643015e-02  -9.671917185187e-03  -8.854765295982e-01  -7.567978464067e-03  -7.159720640630e-03  -8.816299438477e-01 